/*--------------------------------*- C++ -*----------------------------------*\
| =========                 |                                                 |
| \\      /  F ield         | OpenFOAM: The Open Source CFD Toolbox           |
|  \\    /   O peration     | Version:  5.0                                   |
|   \\  /    A nd           | Web:      www.OpenFOAM.org                      |
|    \\/     M anipulation  |                                                 |
\*---------------------------------------------------------------------------*/
FoamFile
{
    version     2.0;
    format      ascii;
    class       volScalarField;
    location    "100/air";
    object      alphat;
}
// * * * * * * * * * * * * * * * * * * * * * * * * * * * * * * * * * * * * * //

dimensions      [1 -1 -1 0 0 0 0];

internalField   nonuniform List<scalar> 
243000
(
0.000119371
0.000121871
0.000121475
0.000117066
0.00011026
0.000104095
0.000101394
0.000103611
0.000107263
0.000110947
0.000114139
0.000117089
0.000119744
0.000122447
0.000124637
0.000126784
0.000127928
0.000127707
0.000125912
0.000124364
0.000122589
0.000120852
0.00011904
0.000117131
0.000115035
0.000113014
0.000111929
0.000112582
0.000115301
0.000119775
0.000582888
0.000601361
0.000617192
0.000614582
0.000598736
0.000586276
0.000594173
0.000622287
0.000655117
0.000687714
0.00071723
0.000745191
0.00076956
0.000792794
0.00081048
0.000825286
0.000831199
0.000824965
0.00080411
0.000782056
0.00075639
0.000729272
0.000700793
0.000672104
0.000643162
0.000615072
0.000591182
0.00057456
0.000567618
0.000568045
0.000639238
0.000655334
0.000673148
0.00067389
0.000661537
0.000653291
0.000665977
0.000695031
0.000727306
0.00075909
0.000787922
0.000815103
0.00083921
0.000862617
0.000880606
0.000895419
0.000901518
0.000895791
0.000875046
0.000852734
0.00082688
0.000799625
0.000770965
0.000742024
0.000712939
0.000684642
0.000660102
0.00064231
0.000631619
0.000624779
0.000675751
0.000687288
0.000706565
0.000711665
0.0007049
0.000702448
0.000718179
0.000746918
0.000777805
0.000808083
0.000835572
0.000861616
0.000885116
0.000908202
0.000926004
0.000940294
0.000945947
0.000940884
0.000920857
0.000899057
0.000873611
0.000846717
0.000818599
0.000790118
0.000761591
0.000733936
0.00070973
0.000691099
0.000676213
0.00066106
0.000706265
0.000713687
0.000732527
0.000740721
0.000739668
0.00074309
0.000760619
0.000788601
0.000818085
0.000846979
0.000873445
0.000898932
0.000922215
0.000945346
0.000963187
0.000977069
0.000982045
0.000977547
0.000958144
0.000936773
0.000911398
0.000884508
0.000856547
0.000828455
0.000800462
0.000773609
0.000750192
0.000730851
0.000712054
0.000689557
0.000737956
0.00074617
0.000760005
0.000767775
0.000771582
0.000779841
0.000798412
0.000825665
0.000854158
0.000882222
0.000908464
0.00093427
0.000958041
0.000981929
0.00100036
0.00101429
0.00101867
0.00101455
0.000995323
0.000973919
0.000947919
0.000920272
0.000891696
0.000863298
0.000835491
0.00080926
0.000786715
0.000766645
0.00074466
0.000717268
0.000778845
0.000790064
0.00079385
0.00079748
0.000803764
0.000815591
0.000834835
0.000861687
0.000889699
0.000917837
0.000944719
0.000971595
0.000996494
0.00102181
0.00104142
0.00105597
0.00106004
0.00105621
0.00103673
0.00101478
0.000987485
0.000958351
0.000928337
0.000898822
0.000870527
0.000844533
0.000822637
0.00080204
0.000777955
0.000750228
0.000826382
0.000839325
0.000837928
0.00083293
0.000838794
0.000852886
0.00087258
0.000899326
0.000927433
0.000956335
0.000984446
0.00101278
0.00103911
0.00106616
0.00108735
0.00110303
0.00110724
0.00110381
0.00108392
0.00106114
0.00103226
0.0010013
0.000969318
0.000938098
0.000908598
0.000882354
0.000860959
0.000840147
0.000815416
0.000793689
0.000879592
0.000892772
0.000888288
0.000876251
0.000878892
0.000894021
0.00091389
0.000940651
0.000969168
0.00099904
0.00102844
0.00105827
0.00108584
0.00111451
0.00113735
0.00115442
0.00115924
0.00115652
0.00113655
0.001113
0.0010827
0.00105015
0.00101626
0.000983244
0.000952324
0.00092554
0.000904401
0.000883934
0.000860328
0.000844129
0.000943946
0.000955082
0.000948742
0.000928996
0.000926265
0.000940743
0.000960396
0.000987027
0.00101574
0.00104624
0.00107649
0.00110745
0.00113582
0.00116557
0.0011898
0.00120836
0.00121409
0.00121241
0.00119321
0.00116928
0.00113817
0.00110476
0.00106966
0.00103536
0.00100335
0.000976196
0.00095534
0.000935896
0.000915163
0.000903655
0.00101636
0.00102644
0.00101722
0.000991575
0.000982298
0.000994218
0.00101296
0.00103889
0.00106706
0.00109743
0.00112775
0.00115919
0.0011878
0.00121795
0.00124306
0.00126299
0.00126983
0.00126957
0.00125205
0.00122849
0.00119751
0.00116425
0.00112909
0.00109456
0.00106233
0.00103532
0.00101512
0.000997551
0.000980974
0.000974197
0.00109682
0.00110568
0.00109352
0.00106319
0.0010473
0.00105461
0.00107147
0.0010958
0.00112237
0.00115156
0.00118107
0.00121216
0.00124047
0.0012703
0.00129571
0.00131684
0.00132487
0.0013263
0.00131116
0.00128895
0.00125914
0.00122712
0.00119327
0.00115986
0.00112865
0.00110271
0.00108384
0.00106904
0.00105731
0.0010548
0.00118357
0.00119055
0.00117568
0.00114195
0.00112006
0.00112126
0.00113481
0.00115647
0.00118036
0.0012073
0.00123509
0.00126505
0.00129246
0.00132143
0.00134664
0.0013687
0.00137802
0.00138125
0.00136896
0.00134901
0.00132132
0.00129158
0.00126025
0.00122938
0.00120058
0.00117679
0.00116016
0.00114897
0.00114242
0.00114351
0.00127363
0.00127805
0.00126076
0.00122486
0.00119793
0.00119266
0.0012013
0.0012189
0.00123918
0.00126298
0.00128828
0.00131646
0.00134244
0.00137015
0.00139479
0.00141758
0.0014282
0.00143333
0.00142406
0.00140712
0.00138228
0.00135567
0.00132779
0.00130061
0.00127541
0.00125491
0.00124139
0.0012344
0.00123295
0.00123705
0.00136341
0.00136476
0.00134541
0.00130838
0.00127755
0.00126608
0.00126869
0.00128088
0.00129656
0.00131656
0.00133888
0.00136478
0.00138894
0.0014152
0.00143901
0.0014624
0.00147437
0.00148147
0.0014753
0.00146174
0.00144022
0.0014173
0.00139354
0.00137082
0.00135013
0.00133384
0.00132413
0.00132166
0.00132454
0.00133128
0.00144927
0.00144743
0.00142635
0.00138892
0.00135525
0.00133804
0.00133401
0.00133972
0.0013499
0.00136564
0.00138472
0.00140817
0.00143032
0.00145507
0.00147792
0.00150183
0.00151513
0.00152426
0.00152122
0.00151113
0.00149319
0.00147428
0.00145503
0.00143723
0.00142165
0.00141024
0.0014049
0.00140667
0.0014131
0.00142203
0.00152792
0.00152311
0.00150043
0.00146295
0.00142709
0.00140444
0.00139346
0.00139192
0.00139617
0.00140739
0.00142344
0.00144458
0.00146482
0.00148812
0.00151
0.0015343
0.00154883
0.0015599
0.00155985
0.00155302
0.00153873
0.00152384
0.00150926
0.00149669
0.00148668
0.00148069
0.00148018
0.00148573
0.00149509
0.00150562
0.00159638
0.00158842
0.00156396
0.00152623
0.00148844
0.0014605
0.00144235
0.00143359
0.00143212
0.0014393
0.00145283
0.00147208
0.00149076
0.00151275
0.00153376
0.00155825
0.00157385
0.00158657
0.001589
0.00158492
0.00157389
0.00156269
0.00155267
0.00154538
0.0015412
0.00154126
0.00154582
0.00155518
0.0015672
0.00157894
0.0016503
0.00163885
0.00161221
0.00157394
0.00153418
0.00150116
0.00147618
0.00146122
0.00145538
0.00145955
0.00147128
0.00148908
0.00150649
0.00152728
0.00154753
0.00157221
0.00158884
0.00160301
0.00160716
0.00160497
0.0015963
0.00158798
0.00158175
0.00157914
0.0015806
0.00158672
0.00159673
0.0016101
0.00162494
0.00163785
0.00168373
0.0016688
0.0016399
0.00160081
0.00155928
0.00152219
0.00149234
0.00147323
0.00146452
0.00146699
0.00147767
0.00149431
0.00151066
0.0015303
0.00154964
0.00157419
0.00159182
0.00160759
0.00161309
0.00161224
0.00160523
0.00159858
0.00159464
0.00159539
0.00160125
0.00161262
0.00162748
0.00164466
0.00166232
0.00167618
0.00169185
0.00167457
0.00164452
0.00160552
0.00156317
0.00152407
0.00149164
0.00146993
0.00146133
0.00146497
0.00147633
0.00149269
0.00150845
0.00152615
0.00154326
0.00156394
0.00158203
0.00159896
0.00160533
0.00160518
0.00159923
0.00159365
0.00159116
0.00159359
0.00160194
0.00161635
0.00163447
0.00165436
0.00167425
0.00168882
0.00167219
0.00165355
0.00162396
0.00158617
0.00154475
0.00151045
0.00148199
0.00146351
0.00145688
0.0014618
0.00147381
0.00149008
0.00150543
0.00152175
0.00153729
0.00155593
0.00157099
0.0015847
0.0015889
0.00158685
0.0015797
0.00157306
0.00157104
0.00157408
0.00158328
0.00159861
0.00161795
0.00163859
0.00165895
0.00167328
0.00162589
0.00160771
0.0015856
0.00155676
0.00152309
0.00149336
0.00146911
0.00145433
0.00145056
0.00145674
0.00146957
0.00148591
0.00150116
0.00151666
0.0015311
0.00154755
0.00156009
0.00157107
0.00157331
0.00156976
0.00156163
0.00155396
0.0015498
0.00155028
0.0015563
0.00156788
0.0015829
0.00159882
0.0016177
0.00163041
0.00157076
0.00155953
0.00154498
0.00152407
0.00149765
0.00147287
0.00145322
0.0014426
0.0014418
0.00144954
0.00146335
0.00148006
0.00149557
0.00151079
0.00152464
0.00153915
0.00154957
0.00155801
0.00155826
0.0015531
0.00154365
0.00153426
0.00152783
0.00152574
0.00152839
0.00153602
0.00154662
0.00155795
0.00156989
0.00157639
0.00151565
0.00151008
0.00150241
0.0014887
0.00146901
0.00144952
0.00143476
0.00142845
0.00143061
0.00144031
0.00145547
0.00147306
0.00148954
0.00150525
0.00151931
0.00153262
0.0015413
0.00154714
0.00154507
0.00153748
0.00152586
0.00151408
0.001505
0.00150005
0.00149941
0.00150287
0.00150899
0.00151553
0.00152109
0.00152207
0.00146087
0.00146011
0.00145871
0.00145136
0.00143815
0.00142429
0.00141472
0.00141288
0.00141853
0.00143099
0.0014485
0.00146801
0.00148645
0.00150431
0.00152019
0.0015338
0.00154136
0.00154466
0.00153924
0.00152775
0.00151204
0.00149626
0.00148338
0.00147459
0.00147011
0.00146925
0.00147066
0.00147215
0.0014717
0.00146801
0.00140918
0.00141236
0.00141627
0.00141509
0.00140858
0.00140126
0.00139805
0.00140195
0.0014128
0.00143088
0.0014527
0.00147598
0.00149838
0.00152023
0.00154034
0.00155695
0.00156499
0.00156649
0.00155729
0.00153979
0.00151724
0.00149414
0.00147382
0.0014582
0.0014471
0.00144007
0.00143568
0.0014316
0.00142495
0.00141667
0.00137947
0.00138643
0.00139537
0.00140067
0.00140284
0.00140559
0.00141321
0.00142746
0.00144816
0.00147346
0.00150064
0.00152775
0.00155344
0.00157849
0.00160233
0.00162507
0.00163697
0.00163963
0.00162954
0.0016076
0.00158146
0.00155107
0.00152
0.00149212
0.00146816
0.00144852
0.00143251
0.00141786
0.00140287
0.00138701
0.00148838
0.00149321
0.00150121
0.00151082
0.0015218
0.00153568
0.00155479
0.00157705
0.00160038
0.00162296
0.00164427
0.00166448
0.00168418
0.00170527
0.00172778
0.00174762
0.00176168
0.00177088
0.00177429
0.00177036
0.00175614
0.00173523
0.00170878
0.00167852
0.001646
0.00161317
0.00158214
0.00155242
0.0015242
0.00149732
0.00179558
0.00178817
0.00177899
0.00176927
0.00176006
0.00175202
0.00174571
0.0017413
0.00173882
0.00173817
0.00173954
0.00174345
0.0017503
0.00176109
0.00177499
0.00179129
0.00180586
0.00181793
0.00182756
0.00183332
0.00183538
0.00183486
0.00183244
0.00182901
0.00182515
0.00182122
0.00181729
0.00181312
0.00180837
0.00180196
0.00018276
0.00018696
0.000181043
0.000169488
0.000157089
0.000147311
0.000143758
0.000145265
0.000148257
0.00015181
0.000155243
0.000158853
0.000162361
0.000166405
0.000169533
0.000172518
0.000174005
0.000173683
0.000171471
0.000169319
0.000166451
0.000164093
0.000161816
0.000159607
0.000157354
0.000155515
0.000155256
0.000158664
0.000166905
0.00017763
0.00142161
0.00150332
0.00143754
0.00131436
0.00111419
0.00099112
0.000970738
0.00100713
0.001059
0.00112278
0.00118711
0.00126204
0.00131185
0.00136031
0.00140042
0.00142692
0.00144128
0.00143231
0.00139965
0.00135846
0.00130652
0.00124174
0.00117004
0.00110915
0.00105571
0.0010192
0.00101089
0.00106459
0.00119912
0.0013671
0.00253309
0.00262446
0.00253968
0.00238856
0.00213853
0.00197779
0.00196746
0.00204473
0.00214372
0.00225736
0.00237064
0.00247281
0.00255649
0.00264427
0.00271593
0.00276042
0.00278523
0.00277316
0.00271779
0.00264515
0.00255101
0.00245105
0.00233536
0.00222019
0.00211421
0.00203077
0.00199827
0.00206535
0.00222576
0.00241545
0.00330791
0.00338706
0.00333745
0.00321297
0.00300451
0.00288238
0.00290086
0.0029926
0.00310521
0.00323536
0.00335279
0.00346531
0.003569
0.00367824
0.00376783
0.00382383
0.00385292
0.00383925
0.00377304
0.00368306
0.00356636
0.00344519
0.00332078
0.00318698
0.00306149
0.00295998
0.00289448
0.00293661
0.00305377
0.0031902
0.00388089
0.00394136
0.00393838
0.00386501
0.00372846
0.00365582
0.00369083
0.00378698
0.00390129
0.00402479
0.00413931
0.00425854
0.00437251
0.00449045
0.00458685
0.00464761
0.00467398
0.00465864
0.00458824
0.00448901
0.00436122
0.00422841
0.00409799
0.00397086
0.00383931
0.00372645
0.0036514
0.00366244
0.00372464
0.00378633
0.00435159
0.00439271
0.00442925
0.00440492
0.0043395
0.00431094
0.00435595
0.00445061
0.00456043
0.00467403
0.00479103
0.00491545
0.00503509
0.00515545
0.00525296
0.00531103
0.0053326
0.00531333
0.00523993
0.00513444
0.00499973
0.00485929
0.00472367
0.00459754
0.00447689
0.0043649
0.00428919
0.00427183
0.00428278
0.00428059
0.0047811
0.00481068
0.0048667
0.00487808
0.00486391
0.00486705
0.00491739
0.00501376
0.00511834
0.0052324
0.00535392
0.00548254
0.00560517
0.00572513
0.00582126
0.00587485
0.00589098
0.00586671
0.00579101
0.00568098
0.00554134
0.005395
0.00525457
0.00512577
0.00500886
0.00490181
0.00483142
0.00479504
0.00476786
0.00472515
0.00520612
0.00522989
0.00528784
0.00531711
0.00533249
0.00535501
0.00540617
0.00550354
0.00561087
0.00573039
0.00585734
0.00598949
0.00611328
0.00623004
0.00632235
0.00637032
0.00638129
0.00635312
0.00627584
0.00616309
0.00602031
0.00586947
0.00572405
0.00559046
0.00547145
0.00536749
0.00530703
0.00526103
0.00521791
0.00515815
0.00563666
0.00565684
0.00570916
0.00574096
0.00576908
0.0058012
0.00585304
0.00594933
0.00606236
0.00618797
0.00631949
0.00645332
0.00657543
0.00668566
0.00677107
0.00681191
0.00681792
0.00678795
0.00671074
0.00659779
0.00645453
0.00630189
0.00615367
0.00601682
0.00589556
0.00579837
0.00574356
0.00569811
0.00565377
0.00559734
0.00606291
0.00608308
0.00612799
0.00615719
0.00618934
0.00622492
0.006279
0.00636994
0.00648663
0.00661565
0.00674907
0.00688128
0.00699787
0.00709697
0.00717193
0.00720566
0.00720809
0.00717997
0.00710583
0.00699621
0.00685549
0.00670475
0.00655741
0.00642072
0.0062997
0.00621341
0.00616199
0.00612021
0.00608058
0.00603784
0.00648656
0.0065046
0.00654459
0.00657055
0.00660083
0.00663642
0.00669239
0.00677608
0.00688982
0.00701756
0.0071485
0.00727459
0.00738092
0.00746474
0.00752641
0.00755479
0.00755461
0.00753291
0.00746643
0.00736559
0.00723266
0.00708801
0.00694573
0.00681364
0.00669748
0.00662186
0.0065723
0.00653493
0.00650279
0.00647419
0.00690976
0.00692333
0.00695833
0.00698136
0.00700858
0.00704113
0.00709378
0.00717265
0.00727458
0.00739322
0.0075164
0.00763173
0.00772323
0.0077883
0.00783547
0.0078581
0.00785682
0.00784294
0.0077901
0.00770411
0.00758537
0.007454
0.00732357
0.0072005
0.00709636
0.00702917
0.00698235
0.00695015
0.00692532
0.00690668
0.0073307
0.00733732
0.00736517
0.00738481
0.00740854
0.00743678
0.00748278
0.0075518
0.00764094
0.00774258
0.00784866
0.00794912
0.00802174
0.00806681
0.00809691
0.00811175
0.00810977
0.00810471
0.00807092
0.0080051
0.00790644
0.00779592
0.00768591
0.00758176
0.00749508
0.00743239
0.00739032
0.00736388
0.00734589
0.00733369
0.00774502
0.00774168
0.0077583
0.00777257
0.00779192
0.00781476
0.00785117
0.00790585
0.00797732
0.00805943
0.00814339
0.00822129
0.0082729
0.00829574
0.00830637
0.00831188
0.00830925
0.00831394
0.00830203
0.00826033
0.00818777
0.00810528
0.00802195
0.00794312
0.00787581
0.00782517
0.00779077
0.00777051
0.00775919
0.00775138
0.00813564
0.0081215
0.0081262
0.00813461
0.00814844
0.00816372
0.00818761
0.00822425
0.00827367
0.008332
0.0083916
0.0084426
0.00846998
0.00846943
0.00845959
0.00845595
0.00845386
0.00846958
0.00847935
0.00846441
0.00842199
0.00836915
0.00831535
0.00826443
0.00822038
0.00818676
0.00816408
0.00815211
0.00814819
0.00814593
0.00847503
0.00845129
0.00844656
0.00845012
0.00845853
0.00846503
0.00847412
0.00848976
0.00851397
0.0085451
0.00857807
0.00860297
0.00860529
0.0085826
0.00855434
0.00854263
0.00854206
0.0085711
0.00860235
0.00861319
0.00859958
0.0085767
0.00855256
0.00852971
0.00850964
0.00849504
0.00848575
0.00848269
0.00848559
0.0084892
0.00873827
0.00870861
0.00869742
0.00869758
0.00869957
0.00869511
0.00868583
0.00867741
0.00867476
0.00867936
0.00868806
0.00869097
0.00867297
0.00863273
0.00859087
0.00857232
0.00857349
0.00861515
0.00866541
0.00869843
0.00870932
0.00871311
0.00871625
0.00871988
0.00872423
0.00872956
0.0087338
0.00873912
0.00874725
0.00875472
0.00890353
0.00887088
0.00885263
0.00884758
0.0088402
0.0088218
0.00879035
0.00875745
0.00873209
0.0087164
0.00870838
0.00869955
0.00867189
0.00862592
0.00857747
0.00855279
0.00855264
0.00860128
0.00866241
0.00870841
0.0087349
0.00875829
0.00878349
0.00880935
0.00883737
0.00886625
0.00888691
0.00890065
0.00891217
0.00892236
0.00894268
0.00890386
0.00887749
0.00886742
0.00884669
0.00881356
0.00875656
0.00870423
0.00867036
0.0086495
0.0086378
0.00862866
0.00860455
0.00856754
0.00852811
0.0085039
0.00850089
0.00854761
0.0086047
0.00864503
0.00866898
0.00869696
0.00873092
0.00876692
0.00881402
0.00887151
0.00891341
0.00893736
0.00895448
0.00896638
0.00882102
0.00876802
0.00873873
0.00873345
0.00873337
0.00869394
0.00861282
0.00852633
0.00848553
0.00847514
0.00847192
0.00847544
0.00846824
0.00845402
0.00843685
0.00843023
0.00843291
0.00847481
0.00851852
0.00854004
0.00854468
0.00855284
0.00856503
0.00859916
0.00866598
0.00873553
0.0087831
0.00881343
0.00883517
0.00884461
0.00849662
0.00843284
0.00841383
0.00841394
0.00840913
0.00837433
0.00830646
0.00823353
0.00819449
0.00818505
0.00820297
0.00823209
0.00825351
0.00827409
0.00828922
0.00831469
0.00832978
0.00837657
0.00840526
0.00840385
0.00838009
0.00835652
0.00834456
0.0083601
0.00839922
0.00843622
0.00846336
0.00848288
0.00851477
0.00852847
0.00801968
0.00797016
0.00795597
0.0079543
0.00794524
0.007892
0.00783709
0.00779012
0.00777261
0.00780079
0.00784524
0.00791304
0.00797258
0.00803067
0.00807932
0.00813464
0.00816807
0.00822372
0.00823874
0.00821298
0.00815648
0.008098
0.00804849
0.00802769
0.00802674
0.00803515
0.00805271
0.00805249
0.00805572
0.00805474
0.00743622
0.00738808
0.00736257
0.00734731
0.00733909
0.00731926
0.00729005
0.00728643
0.00731899
0.00738098
0.0074651
0.00757269
0.00767603
0.00777297
0.00785486
0.00793324
0.00797796
0.00802653
0.00801927
0.00795928
0.00785888
0.00775993
0.00767341
0.00760619
0.00756369
0.00754313
0.00753139
0.00751446
0.00749343
0.00747923
0.00675213
0.00669962
0.0066936
0.00670509
0.00672906
0.00674982
0.00677113
0.00681543
0.00688758
0.00698603
0.00711355
0.00726058
0.00740012
0.00753265
0.00764555
0.00774314
0.00779759
0.00783715
0.0078062
0.00771292
0.00757333
0.00742519
0.00729368
0.00717651
0.00708117
0.0070045
0.00693923
0.00688283
0.00683666
0.00680804
0.0061274
0.00610712
0.00613318
0.00617456
0.00623188
0.00628899
0.00635115
0.00642856
0.00653477
0.00666923
0.00683021
0.00700625
0.00717426
0.00733567
0.00747416
0.00759005
0.0076546
0.00769156
0.00764374
0.00752416
0.00735324
0.00716764
0.00698841
0.00682544
0.00668286
0.00655758
0.00644464
0.00634235
0.00625047
0.00618768
0.00571216
0.00572346
0.00577576
0.00584075
0.00591494
0.00599274
0.00607431
0.00617131
0.00629882
0.00645768
0.00664269
0.00683531
0.00702106
0.00720363
0.00736448
0.0074999
0.00757675
0.0076188
0.00756549
0.0074336
0.00724257
0.00702673
0.00681072
0.00661208
0.00643574
0.00627506
0.00612874
0.00599128
0.00586374
0.00576994
0.00554287
0.00557779
0.00564598
0.0057204
0.00579892
0.00587914
0.00596333
0.00607042
0.00621087
0.0063825
0.0065753
0.00677418
0.0069714
0.00717118
0.00735442
0.00751273
0.00760465
0.0076592
0.00760917
0.00746637
0.00726303
0.00703534
0.00680195
0.00657863
0.00637218
0.00618532
0.00601948
0.00586253
0.00571228
0.00559391
0.00561611
0.00567043
0.00574495
0.00581916
0.00589524
0.00597549
0.00606716
0.00618144
0.00632573
0.00649805
0.00669048
0.00689064
0.0070974
0.00731571
0.00752773
0.0077174
0.00783196
0.00790446
0.00787051
0.00773307
0.00752612
0.00728496
0.00703048
0.00677723
0.00654244
0.00633504
0.00614616
0.00597084
0.00580397
0.00566034
0.0060902
0.00615821
0.00623732
0.0063138
0.00639109
0.0064725
0.00656277
0.00667259
0.00681219
0.00697736
0.007159
0.0073692
0.00759294
0.00784026
0.00810383
0.00834732
0.00850384
0.0086003
0.00858704
0.0084524
0.00823252
0.00796856
0.00768908
0.00741453
0.00715912
0.00692629
0.00671169
0.00650977
0.00631556
0.00613707
0.00769387
0.00776572
0.00784382
0.00792472
0.00800903
0.00809662
0.00819128
0.00829373
0.00841419
0.00855622
0.00871445
0.00889997
0.00911482
0.00938288
0.00968742
0.00998853
0.0102063
0.0103618
0.0104036
0.0103299
0.0101563
0.00992134
0.009651
0.00936706
0.00908182
0.00880252
0.00853185
0.00826922
0.00801304
0.00777151
0.000222909
0.000223342
0.00021619
0.00020485
0.000192335
0.000182547
0.000177819
0.000177
0.000177486
0.000178883
0.00018044
0.000182431
0.000184484
0.000187543
0.000190191
0.000193127
0.000194587
0.000195076
0.000193917
0.000193105
0.00019197
0.000191031
0.000190385
0.000189812
0.00018935
0.000189747
0.000191968
0.000197464
0.000207528
0.000219523
0.00192406
0.00196754
0.00191023
0.00181785
0.0017323
0.00165857
0.00160546
0.00158275
0.00157513
0.00157885
0.00158852
0.00160837
0.00163473
0.00167702
0.00171795
0.00174939
0.00176624
0.00176228
0.00173373
0.0017021
0.00166664
0.00163757
0.00161866
0.00161117
0.00161682
0.00164152
0.00168014
0.00175673
0.00183442
0.00191265
0.00348871
0.00357804
0.00350882
0.00340084
0.00330815
0.0032197
0.00315664
0.00314243
0.00315037
0.00317427
0.00320538
0.00325288
0.00331058
0.00339964
0.00348344
0.00354604
0.00358059
0.00358374
0.00353381
0.00347374
0.00340005
0.00333057
0.00327266
0.00323044
0.00320556
0.00320678
0.00323411
0.00329851
0.00337298
0.00345434
0.00467036
0.00474909
0.00470745
0.00465652
0.00461701
0.00455931
0.00451824
0.00452481
0.00455423
0.00459956
0.00465366
0.00472756
0.00481591
0.00494698
0.00507248
0.00516664
0.00521675
0.00522846
0.00516371
0.00507922
0.00497078
0.00486047
0.0047601
0.00467716
0.00461071
0.00456875
0.0045526
0.00455678
0.00457224
0.00460638
0.00552559
0.00560339
0.00561895
0.00562158
0.00563427
0.00565883
0.00566662
0.00570366
0.0057587
0.00582393
0.00590314
0.00600174
0.00611871
0.00628611
0.00644854
0.00657261
0.00663501
0.00665222
0.00657548
0.00646817
0.00632731
0.00617562
0.00603304
0.00590821
0.00579537
0.00570346
0.00562654
0.00555958
0.00550459
0.0054798
0.00619299
0.00627454
0.00633394
0.00639328
0.00646712
0.00654372
0.00660503
0.00668295
0.00677273
0.00687027
0.00696672
0.0070901
0.00723528
0.007434
0.00762709
0.00777871
0.00784791
0.00786563
0.00777628
0.00764528
0.00747294
0.00729162
0.00710706
0.00692528
0.00676156
0.00661975
0.00648224
0.00635338
0.00624225
0.00617015
0.0067585
0.0068436
0.00692219
0.00701572
0.00712863
0.00724857
0.00735931
0.00747985
0.00761038
0.00774188
0.00787554
0.0080311
0.0082052
0.00843026
0.0086468
0.00881886
0.00888772
0.00890166
0.00879914
0.00864334
0.00843615
0.00820665
0.00797389
0.00774369
0.00753551
0.00734945
0.00716638
0.00699722
0.00685132
0.00675144
0.00727963
0.00736337
0.00744317
0.00754816
0.00767856
0.00782642
0.00797842
0.00813759
0.00831383
0.00848874
0.00866368
0.00885488
0.00905933
0.00930754
0.00954327
0.00972769
0.00979274
0.0097957
0.00967728
0.00949467
0.00925134
0.00897536
0.0086931
0.0084161
0.00817081
0.00794729
0.00773612
0.00754752
0.00738921
0.0072801
0.00779426
0.00787168
0.00794244
0.00804264
0.00817341
0.0083325
0.00851337
0.0087076
0.00892229
0.00914185
0.00935871
0.00958623
0.00981953
0.010086
0.0103347
0.0105247
0.0105825
0.0105703
0.0104373
0.0102302
0.00995447
0.0096371
0.0093112
0.00899865
0.00872344
0.00847291
0.00824877
0.0080572
0.00790193
0.00779681
0.00832525
0.00839255
0.00845142
0.00853838
0.00865848
0.0088161
0.00901118
0.00923355
0.00947687
0.0097313
0.00998445
0.0102438
0.0105005
0.0107771
0.01103
0.0112178
0.0112631
0.0112351
0.0110927
0.010869
0.0105722
0.0102257
0.00987391
0.00953755
0.00924206
0.00897666
0.00875114
0.0085663
0.00842188
0.00832714
0.00888324
0.00893916
0.00898545
0.00905645
0.00916164
0.00931046
0.0095084
0.00974695
0.0100081
0.010285
0.0105628
0.010843
0.0111134
0.0113898
0.0116342
0.0118089
0.0118385
0.0117965
0.0116533
0.0114252
0.0111229
0.0107691
0.0104093
0.0100659
0.00976056
0.0094918
0.00927176
0.00909801
0.00896667
0.00888389
0.00946958
0.00951391
0.00954819
0.00960386
0.00969397
0.00983138
0.0100245
0.010266
0.010536
0.0108211
0.0111097
0.0113967
0.0116682
0.0119316
0.0121527
0.0123049
0.0123163
0.0122673
0.0121314
0.0119133
0.0116218
0.0112798
0.0109302
0.0105974
0.0102944
0.0100321
0.00982137
0.00965953
0.00954091
0.00946927
0.0100738
0.0101071
0.0101313
0.0101746
0.0102523
0.0103784
0.0105625
0.0107978
0.011065
0.0113479
0.011634
0.0119138
0.0121721
0.0124088
0.0125959
0.0127174
0.0127083
0.0126605
0.012542
0.0123461
0.0120801
0.0117657
0.0114406
0.0111269
0.0108399
0.0105921
0.0103933
0.010243
0.0101357
0.0100736
0.0106706
0.0106952
0.0107131
0.0107495
0.0108196
0.0109372
0.0111112
0.011335
0.0115911
0.0118621
0.0121352
0.012396
0.012629
0.01283
0.0129762
0.0130603
0.013028
0.0129881
0.0128959
0.012733
0.0125036
0.0122253
0.0119338
0.0116478
0.0113817
0.0111504
0.0109639
0.0108239
0.0107262
0.010672
0.0112336
0.0112502
0.0112645
0.0112988
0.0113672
0.0114811
0.0116468
0.0118581
0.0120994
0.0123529
0.0126061
0.0128398
0.0130396
0.0131996
0.0133042
0.0133466
0.0132889
0.0132612
0.0132002
0.0130764
0.0128895
0.0126519
0.0123974
0.0121422
0.0118991
0.0116842
0.0115077
0.0113749
0.0112845
0.0112364
0.0117352
0.0117447
0.0117584
0.0117945
0.0118661
0.0119807
0.0121415
0.012342
0.0125685
0.0128041
0.0130346
0.0132381
0.0134015
0.0135196
0.0135847
0.013587
0.0135028
0.0134894
0.01346
0.0133756
0.013231
0.0130347
0.0128128
0.0125858
0.0123644
0.0121647
0.0119953
0.0118663
0.0117816
0.0117397
0.0121408
0.0121441
0.0121607
0.0122028
0.0122834
0.0124039
0.0125641
0.0127578
0.0129733
0.0131955
0.0134037
0.0135786
0.0137076
0.0137881
0.0138192
0.0137873
0.013681
0.0136808
0.0136789
0.0136281
0.0135194
0.0133578
0.0131602
0.0129531
0.0127487
0.0125597
0.0123925
0.0122635
0.0121825
0.012147
0.0124149
0.0124149
0.0124321
0.0124876
0.0125843
0.0127164
0.012882
0.0130751
0.013288
0.0135045
0.0136974
0.0138498
0.0139501
0.0139998
0.0140065
0.0139506
0.0138316
0.0138417
0.0138598
0.0138321
0.0137471
0.0136084
0.0134223
0.0132219
0.0130241
0.0128365
0.0126654
0.0125329
0.0124526
0.0124224
0.0125264
0.0125262
0.0125455
0.012613
0.0127339
0.0128851
0.0130653
0.0132715
0.0134961
0.0137177
0.0139053
0.0140452
0.014128
0.0141571
0.0141462
0.0140786
0.0139592
0.0139772
0.0140057
0.0139878
0.0139102
0.0137789
0.0135884
0.0133742
0.0131687
0.0129716
0.0127865
0.0126477
0.0125644
0.0125345
0.012457
0.0124549
0.0124792
0.0125613
0.0127111
0.0128931
0.0131066
0.0133412
0.0135885
0.0138264
0.0140249
0.0141658
0.0142453
0.0142683
0.0142521
0.0141807
0.0140655
0.0140906
0.0141208
0.0140981
0.0140097
0.0138617
0.0136472
0.0134045
0.0131756
0.0129556
0.0127423
0.0125932
0.0125058
0.0124646
0.0121934
0.0122048
0.0122417
0.0123378
0.0125103
0.0127579
0.0130202
0.0132959
0.0135737
0.0138377
0.0140605
0.0142201
0.0143113
0.0143453
0.0143401
0.0142787
0.0141774
0.0142007
0.014221
0.014176
0.0140537
0.0138637
0.0136073
0.0133209
0.0130565
0.0127759
0.0125328
0.012372
0.0122669
0.0122089
0.0117647
0.0117831
0.0118644
0.0120166
0.01224
0.0125138
0.0128282
0.0131667
0.013479
0.0137781
0.0140334
0.0142231
0.014341
0.0144033
0.0144277
0.0143915
0.0143155
0.0143371
0.0143378
0.0142589
0.0140899
0.0138442
0.0135277
0.0131902
0.0128588
0.0125235
0.0122299
0.0120094
0.0118665
0.0117896
0.0112669
0.0113104
0.0114404
0.0116569
0.0119439
0.0122599
0.012601
0.0129745
0.0133573
0.0136832
0.0139753
0.0142024
0.0143579
0.0144634
0.0145341
0.0145382
0.0144993
0.0145243
0.0145032
0.0143856
0.0141633
0.0138536
0.0134775
0.0130788
0.0126613
0.0122732
0.0119175
0.0116192
0.0114172
0.0113009
0.0108281
0.0108983
0.0110741
0.011345
0.0116785
0.0120482
0.0124368
0.0128259
0.0132185
0.0136055
0.0139331
0.0141918
0.0143912
0.014551
0.0146809
0.0147411
0.0147505
0.0147872
0.014748
0.0145929
0.0143182
0.0139511
0.0135205
0.0130459
0.0125496
0.0121039
0.0116926
0.0113235
0.0110375
0.0108715
0.0105633
0.0106584
0.0108802
0.0111858
0.0115461
0.0119428
0.0123581
0.0127744
0.0131864
0.0135819
0.0139346
0.0142352
0.0144781
0.0146975
0.0148972
0.0150279
0.0150948
0.0151547
0.0151046
0.0149177
0.0146029
0.0141882
0.0137093
0.0131785
0.0126231
0.0120997
0.0116233
0.0111959
0.0108382
0.0106121
0.0105733
0.0107009
0.0109499
0.0112708
0.01164
0.0120423
0.0124615
0.0128837
0.0132999
0.0136975
0.0140621
0.0143794
0.0146612
0.0149432
0.0152208
0.0154352
0.0155652
0.0156641
0.0156178
0.0154161
0.015072
0.0146182
0.0140931
0.0135031
0.0128948
0.0123104
0.0117861
0.0113142
0.0109131
0.0106318
0.0109578
0.0111047
0.0113629
0.0116898
0.0120534
0.012436
0.0128328
0.0132315
0.013626
0.0140072
0.0143649
0.0146898
0.0150024
0.015345
0.0157066
0.0160132
0.016213
0.016366
0.016337
0.0161298
0.0157737
0.0153016
0.0147378
0.014121
0.0134881
0.0128744
0.0123058
0.0117931
0.0113471
0.011018
0.0118474
0.0120133
0.0122607
0.0125588
0.0129043
0.0132448
0.0135893
0.0139342
0.0142783
0.014618
0.0149469
0.0152639
0.0155962
0.015992
0.0164387
0.0168454
0.0171198
0.0173479
0.0173567
0.0171585
0.016794
0.0163143
0.0157509
0.0151369
0.0145101
0.0139036
0.0133292
0.0127927
0.0123117
0.0119301
0.0134726
0.0136411
0.01387
0.0141274
0.0143913
0.0146643
0.0149242
0.0151806
0.0154395
0.0157036
0.0159733
0.0162557
0.0165858
0.0170218
0.0175427
0.0180532
0.0184122
0.0187307
0.0188054
0.0186548
0.0183124
0.017853
0.017325
0.0167518
0.0161698
0.0155961
0.0150338
0.0144935
0.0139941
0.0135796
0.0164613
0.0165687
0.0167014
0.0168419
0.016977
0.0171052
0.0172172
0.0173203
0.0174288
0.0175523
0.017701
0.0178906
0.018172
0.0186069
0.0191646
0.0197634
0.0202225
0.0206444
0.0208256
0.0207905
0.0205654
0.0202023
0.0197732
0.0193327
0.0188656
0.018394
0.0179222
0.0174505
0.016998
0.0166036
0.000241015