/*--------------------------------*- C++ -*----------------------------------*\
| =========                 |                                                 |
| \\      /  F ield         | OpenFOAM: The Open Source CFD Toolbox           |
|  \\    /   O peration     | Version:  5.0                                   |
|   \\  /    A nd           | Web:      www.OpenFOAM.org                      |
|    \\/     M anipulation  |                                                 |
\*---------------------------------------------------------------------------*/
FoamFile
{
    version     2.0;
    format      ascii;
    class       volScalarField;
    location    "100/air";
    object      epsilon;
}
// * * * * * * * * * * * * * * * * * * * * * * * * * * * * * * * * * * * * * //

dimensions      [0 2 -3 0 0 0 0];

internalField   nonuniform List<scalar> 
243000
(
1.16057
1.45054
1.67507
1.7194
1.63678
1.58485
1.71087
2.07044
2.53247
3.03426
3.52855
4.01245
4.45975
4.88563
5.20672
5.46649
5.52155
5.32296
4.88436
4.44722
3.97445
3.5043
3.04558
2.6088
2.19618
1.82621
1.53394
1.33609
1.23091
1.18926
0.840353
0.932583
1.02067
1.00413
0.924726
0.879807
0.940242
1.08556
1.25879
1.44203
1.61883
1.79653
1.96116
2.12915
2.263
2.38467
2.43368
2.38148
2.21509
2.04964
1.86775
1.68835
1.51013
1.34168
1.18161
1.03401
0.913115
0.830046
0.793031
0.792066
1.09429
1.19122
1.31197
1.31732
1.24643
1.22176
1.3199
1.50366
1.71228
1.92909
2.13635
2.34315
2.53808
2.73909
2.89892
3.04039
3.09767
3.04238
2.84898
2.65255
2.43491
2.21929
2.00543
1.80071
1.60523
1.42303
1.26971
1.15862
1.08746
1.03896
1.28708
1.37387
1.51138
1.54646
1.50778
1.52111
1.64993
1.85771
2.08627
2.32149
2.54644
2.77318
2.98956
3.21403
3.39123
3.54113
3.59689
3.54187
3.33389
3.11982
2.87818
2.63694
2.39921
2.17135
1.95326
1.74964
1.5758
1.44098
1.32852
1.21871
1.48392
1.56977
1.69171
1.74064
1.74303
1.79944
1.95273
2.1779
2.42142
2.67241
2.91748
3.16936
3.41196
3.66538
3.86437
4.02366
4.07383
4.01635
3.79142
3.55777
3.2876
3.01637
2.7516
2.50088
2.26333
2.04356
1.85641
1.69963
1.54414
1.38072
1.73966
1.85422
1.91366
1.93708
1.97603
2.07412
2.24866
2.4907
2.75149
3.02517
3.30092
3.59044
3.87141
4.16725
4.3999
4.5773
4.62284
4.55863
4.30593
4.04165
3.72931
3.41463
3.11067
2.82817
2.5673
2.331
2.13241
1.95338
1.75877
1.57182
2.07746
2.22075
2.22575
2.17108
2.22728
2.36297
2.55832
2.82156
3.10742
3.41642
3.73644
4.07742
4.41009
4.76375
5.04445
5.25251
5.29865
5.22587
4.93356
4.62405
4.25243
3.8781
3.51851
3.19017
2.89522
2.63721
2.42566
2.22496
2.00088
1.84331
2.49376
2.66482
2.63261
2.47675
2.52296
2.68982
2.90744
3.19852
3.52009
3.87718
4.25378
4.65779
5.0521
5.47533
5.81688
6.06852
6.12354
6.04563
5.70724
5.33976
4.89326
4.44506
4.01471
3.62571
3.28283
2.99355
2.76508
2.54452
2.30722
2.20371
3.00589
3.19859
3.13407
2.89129
2.89754
3.08538
3.32708
3.65316
4.01917
4.43288
4.87357
5.3487
5.80869
6.30629
6.71637
7.02207
7.09534
7.02012
6.63975
6.2077
5.67773
5.14675
4.63571
4.17447
3.77192
3.44229
3.19112
2.95373
2.72024
2.66082
3.67379
3.86922
3.77845
3.45463
3.3945
3.58745
3.85276
4.21734
4.63081
5.10291
5.60868
6.15728
6.68231
7.2509
7.73009
8.09661
8.19625
8.13396
7.7282
7.23356
6.62054
6.00634
5.41309
4.87543
4.40691
4.03117
3.75352
3.50441
3.28733
3.24178
4.57491
4.78173
4.64096
4.21509
4.06231
4.23638
4.5189
4.91895
5.37466
5.89964
6.46419
7.08191
7.66707
8.29711
8.8384
9.26874
9.40174
9.36506
8.95521
8.41204
7.72743
7.03865
6.37111
5.76212
5.22992
4.80781
4.50456
4.25282
4.0642
4.04311
5.75475
5.96779
5.76164
5.21821
4.95031
5.06801
5.35353
5.77752
6.26182
6.82648
7.43755
8.11335
8.74921
9.42676
10.0187
10.5119
10.6846
10.6866
10.294
9.72665
8.99152
8.24712
7.52267
6.85867
6.27576
5.81519
5.49442
5.25518
5.11018
5.12655
7.24632
7.44836
7.16434
6.49586
6.09371
6.11596
6.37299
6.79982
7.29192
7.87621
8.516
9.23407
9.90568
10.616
11.2456
11.7978
12.0161
12.0668
11.7117
11.1507
10.3921
9.61939
8.86427
8.17198
7.56231
7.08156
6.75962
6.55506
6.47279
6.54011
9.05393
9.2182
8.84501
8.05219
7.50078
7.39583
7.58326
7.9744
8.44781
9.02786
9.67494
10.4154
11.1049
11.8334
12.4879
13.094
13.3628
13.471
13.171
12.646
11.8943
11.1254
10.3721
9.68457
9.08075
8.60957
8.31165
8.16975
8.16887
8.29788
11.1376
11.2344
10.7637
9.85374
9.14667
8.88992
8.96265
9.2748
9.69132
10.2413
10.8739
11.615
12.3041
13.0381
13.7051
14.3605
14.684
14.8572
14.6275
14.1625
13.4483
12.7157
11.999
11.3519
10.792
10.3675
10.1253
10.0749
10.1673
10.3668
13.4138
13.4168
12.8431
11.826
10.9652
10.5372
10.4542
10.6403
10.9628
11.4526
12.0521
12.7746
13.4474
14.1761
14.8454
15.5454
15.9251
16.1698
16.0229
15.6345
14.985
14.3178
13.6717
13.1019
12.6244
12.2867
12.137
12.1961
12.3914
12.6646
15.7584
15.6499
14.967
13.8515
12.8423
12.2258
11.9531
11.9691
12.1685
12.5754
13.129
13.8204
14.4665
15.1818
15.8454
16.5835
17.0174
17.3346
17.2761
16.9721
16.4076
15.827
15.2812
14.824
14.4687
14.2586
14.2387
14.4187
14.7228
15.0681
18.0068
17.7679
16.9643
15.7529
14.6013
13.7856
13.2989
13.1256
13.1912
13.5108
14.0148
14.6705
15.2859
15.9805
16.6334
17.4006
17.8846
18.2683
18.2922
18.0678
17.5908
17.1051
16.677
16.3583
16.1598
16.1211
16.2611
16.5799
16.9994
17.4137
19.9196
19.5283
18.5948
17.2929
16.0122
15.0047
14.3116
13.9694
13.9196
14.1661
14.6237
15.2417
15.8224
16.4878
17.1257
17.9155
18.4475
18.8931
18.9828
18.8227
18.4169
18.0118
17.6909
17.5097
17.4807
17.636
17.9626
18.4367
18.9819
19.4648
21.1723
20.6257
19.5763
18.2019
16.8305
15.6911
14.8573
14.3972
14.2665
14.4655
14.884
15.4574
15.9984
16.6245
17.2351
18.0329
18.605
19.1178
19.2624
19.156
18.8111
18.4618
18.2106
18.1253
18.2331
18.5594
19.0607
19.6812
20.346
20.8841
21.4863
20.8318
19.7435
18.3773
16.9878
15.7961
14.8966
14.3748
14.2182
14.4293
14.8491
15.3963
15.9032
16.4587
16.9955
17.7184
18.3022
18.8594
19.0437
18.9781
18.682
18.3739
18.1726
18.1504
18.334
18.7517
19.3496
20.0536
20.7986
21.3676
20.7352
20.0496
19.0098
17.7341
16.4239
15.3901
14.632
14.2137
14.131
14.3617
14.7842
15.313
15.7953
16.3013
16.7835
17.3954
17.8686
18.312
18.4323
18.3303
18.037
17.7479
17.5704
17.5663
17.7692
18.1995
18.8072
19.5097
20.2377
20.7737
19.0342
18.4065
17.6626
16.7522
15.7464
14.8947
14.2826
13.9813
13.9783
14.2392
14.6705
15.188
15.6585
16.1339
16.577
17.0925
17.4765
17.8243
17.8849
17.7467
17.437
17.1111
16.8757
16.7946
16.8894
17.1762
17.6061
18.1355
18.7595
19.1949
17.1198
16.7708
16.326
15.7186
14.9823
14.3182
13.8576
13.6765
13.7505
14.0509
14.5001
15.0191
15.4949
15.963
16.3886
16.8337
17.145
17.4015
17.3912
17.1978
16.8479
16.476
16.1811
16.0246
16.0186
16.1679
16.4336
16.7698
17.1202
17.3082
15.361
15.2128
15.0136
14.6587
14.1573
13.681
13.3734
13.3087
13.4591
13.8118
14.2962
14.8415
15.3493
15.8452
16.2905
16.7044
16.9596
17.1193
17.0157
16.7298
16.3015
15.8606
15.4927
15.2532
15.1498
15.1706
15.2845
15.4407
15.5644
15.5633
13.7594
13.7588
13.7561
13.607
13.3157
13.0242
12.8721
12.9237
13.171
13.6062
14.1631
14.778
15.3763
15.9602
16.4906
16.9367
17.1624
17.2304
16.9974
16.5541
15.9748
15.3946
14.9068
14.548
14.3268
14.2191
14.187
14.1742
14.1106
13.9692
12.4033
12.5107
12.6586
12.6857
12.5963
12.5045
12.5367
12.7566
13.1715
13.7717
14.4839
15.2525
16.0115
16.7739
17.4964
18.0826
18.3508
18.36
17.9829
17.3149
16.4614
15.5898
14.8301
14.2404
13.8088
13.5087
13.2958
13.107
12.8742
12.6084
11.9458
12.148
12.4284
12.6393
12.7959
12.9929
13.3333
13.8628
14.5831
15.4389
16.3673
17.3174
18.2536
19.2215
20.2318
21.1196
21.5797
21.6708
21.2798
20.4302
19.2551
18.0061
16.8051
15.7601
14.8908
14.1837
13.61
13.1108
12.6198
12.1424
16.4752
16.5997
16.8481
17.1773
17.5763
18.0892
18.7719
19.5576
20.3747
21.1688
21.924
22.6506
23.3715
24.1568
24.9899
25.8126
26.4188
26.8125
26.9696
26.8389
26.3927
25.6173
24.5811
23.3803
22.1097
20.8435
19.6805
18.6135
17.6356
16.753
28.0413
27.706
27.2961
26.8702
26.4647
26.1025
25.8086
25.5916
25.4529
25.3926
25.4186
25.5553
25.8239
26.2709
26.8685
27.5991
28.2624
28.8106
29.2675
29.5568
29.6865
29.6992
29.6255
29.5015
29.3544
29.1982
29.034
28.8499
28.6307
28.3343
4.40248
5.53953
5.78056
5.35378
4.81751
4.53847
4.86842
5.67045
6.68148
7.82537
9.00527
10.2261
11.4516
12.6585
13.5449
14.2411
14.3487
13.8021
12.6947
11.508
10.1624
8.89392
7.72049
6.6356
5.6313
4.75434
4.08626
3.76115
3.83351
4.0375
2.37352
2.84188
3.00946
2.88755
2.7452
2.71535
2.88869
3.20154
3.57288
3.98
4.40851
4.84122
5.30251
5.75762
6.11617
6.376
6.40811
6.16569
5.73299
5.2465
4.72252
4.24542
3.82315
3.43729
3.0841
2.75888
2.48566
2.31929
2.27964
2.31772
2.25651
2.63391
2.74447
2.59008
2.40918
2.37031
2.4918
2.70436
2.96242
3.25396
3.56635
3.89707
4.22856
4.54356
4.78904
4.94983
4.96146
4.78888
4.48554
4.13335
3.75383
3.39475
3.08296
2.81409
2.58046
2.37529
2.20169
2.10681
2.1146
2.18981
2.50092
2.80603
2.87435
2.6857
2.45769
2.3817
2.4625
2.6482
2.88461
3.15473
3.44527
3.74524
4.02978
4.29484
4.49871
4.61811
4.62121
4.48085
4.22562
3.92159
3.58585
3.26039
2.97028
2.72359
2.51565
2.34616
2.23593
2.2039
2.26207
2.37287
2.90926
3.15393
3.19065
2.98793
2.72061
2.60713
2.65872
2.83124
3.06488
3.33783
3.62393
3.91209
4.176
4.42232
4.61263
4.71589
4.71977
4.59804
4.36363
4.07755
3.75341
3.43375
3.14219
2.89334
2.68914
2.54199
2.47325
2.49966
2.59983
2.72054
3.44598
3.64725
3.66199
3.45349
3.16873
3.02094
3.03858
3.19857
3.43161
3.69909
3.979
4.2579
4.51027
4.74817
4.93568
5.03963
5.04994
4.94593
4.72408
4.44587
4.12327
3.80426
3.50682
3.25097
3.05009
2.92063
2.89497
2.96479
3.09686
3.21124
4.10725
4.28673
4.28679
4.08123
3.79019
3.60446
3.58665
3.72741
3.94217
4.19583
4.45975
4.72639
4.96704
5.19727
5.38398
5.49634
5.51822
5.43537
5.22644
4.95606
4.6369
4.32228
4.02519
3.768
3.57553
3.47459
3.48603
3.59677
3.73927
3.84525
4.8966
5.06979
5.06198
4.86706
4.58508
4.3626
4.30738
4.40567
4.58685
4.81131
5.04554
5.29157
5.51469
5.73211
5.91472
6.03679
6.07189
6.01285
5.82182
5.56489
5.25991
4.962
4.67879
4.43297
4.25736
4.19128
4.24116
4.37871
4.52519
4.62463
5.80557
5.97627
5.96921
5.79008
5.52511
5.28497
5.18443
5.22414
5.35592
5.53368
5.72453
5.93869
6.13578
6.33211
6.50273
6.62664
6.67365
6.64122
6.47679
6.24457
5.96898
5.70512
5.4531
5.23554
5.09039
5.06131
5.14333
5.30003
5.44602
5.53884
6.81828
7.00337
7.00292
6.83765
6.58514
6.33101
6.18681
6.16457
6.23024
6.34475
6.47953
6.65122
6.81442
6.97894
7.12834
7.25062
7.31123
7.30897
7.18134
6.9877
6.75793
6.54671
6.3438
6.17013
6.0665
6.07137
6.17587
6.3401
6.47989
6.57124
8.0076
8.20538
8.2076
8.04749
7.774
7.48884
7.29557
7.20623
7.19396
7.23189
7.29813
7.41649
7.54036
7.6711
7.79629
7.91568
7.99536
8.03139
7.95054
7.8091
7.64193
7.50217
7.3695
7.25839
7.20422
7.23594
7.35432
7.52435
7.67505
7.78855
9.39456
9.58871
9.58586
9.431
9.13701
8.79635
8.52745
8.34909
8.24439
8.1954
8.18313
8.24038
8.32411
8.42386
8.52451
8.64498
8.748
8.81962
8.7895
8.70918
8.61864
8.56594
8.52279
8.49824
8.51338
8.58944
8.73275
8.91817
9.08226
9.20715
10.9508
11.1278
11.114
10.9638
10.652
10.2551
9.89783
9.61122
9.39476
9.24299
9.14701
9.13711
9.18144
9.25632
9.33969
9.46284
9.58608
9.68906
9.70761
9.69158
9.68674
9.72901
9.78878
9.8651
9.96752
10.1085
10.2897
10.4956
10.6714
10.7958
12.6178
12.771
12.7474
12.6051
12.2838
11.836
11.3838
10.9786
10.6409
10.3803
10.1966
10.1189
10.1255
10.1855
10.2604
10.391
10.5312
10.6608
10.7204
10.7658
10.8464
10.9823
11.1502
11.3355
11.5352
11.7515
11.9788
12.2032
12.3822
12.4909
14.3455
14.4706
14.4458
14.3189
13.9978
13.5054
12.9576
12.4282
11.963
11.5918
11.3215
11.1803
11.1567
11.2142
11.2887
11.438
11.6006
11.7519
11.8444
11.9425
12.0974
12.323
12.5963
12.8913
13.1891
13.4816
13.7541
13.9872
14.1547
14.2501
16.0867
16.1959
16.193
16.0918
15.772
15.2306
14.5803
13.9151
13.3131
12.826
12.4769
12.2897
12.2521
12.3213
12.4111
12.5856
12.7708
12.9539
13.0743
13.2153
13.4318
13.7385
14.1115
14.5146
14.9071
15.2721
15.5821
15.8123
15.9491
16.0235
17.8204
17.9344
17.9732
17.8939
17.5545
16.9366
16.1473
15.316
14.5687
13.9849
13.5899
13.3922
13.371
13.4718
13.594
13.79
13.991
14.1944
14.3339
14.5057
14.7663
15.1408
15.6079
16.1281
16.6395
17.0903
17.4378
17.6604
17.7539
17.776
19.5336
19.6454
19.6699
19.5523
19.1421
18.4002
17.4411
16.4356
15.5955
14.9839
14.6053
14.4556
14.4968
14.6551
14.827
15.0305
15.217
15.3976
15.5141
15.6763
15.9438
16.3608
16.9122
17.5542
18.207
18.7973
19.2375
19.4825
19.5512
19.5164
21.0669
21.0612
21.0046
20.7988
20.2564
19.35
18.2347
17.1799
16.3973
15.8651
15.577
15.5177
15.6512
15.8882
16.1234
16.3469
16.5157
16.6184
16.6319
16.6863
16.8665
17.2512
17.8233
18.5345
19.3014
20.0686
20.6681
21.0103
21.143
21.1194
21.9816
21.8545
21.6826
21.3561
20.625
19.6545
18.6514
17.7535
17.0779
16.6581
16.4896
16.5549
16.8026
17.1332
17.4404
17.6836
17.8316
17.8664
17.7755
17.7047
17.7546
17.9828
18.4082
19.01
19.7517
20.6304
21.3478
21.8166
22.0809
22.1106
22.0123
21.7912
21.5194
21.2436
20.6454
19.7923
18.8927
18.1427
17.6096
17.3304
17.3103
17.5222
17.8968
18.3249
18.7036
18.9679
19.097
19.0592
18.8637
18.6563
18.5559
18.6244
18.8929
19.3456
19.9409
20.6648
21.3243
21.8032
22.1303
22.1867
21.3753
21.2068
21.1201
20.931
20.4472
19.7393
18.9556
18.3308
17.9642
17.8478
17.999
18.362
18.8631
19.3814
19.8196
20.1047
20.2188
20.1145
19.8234
19.4831
19.2292
19.1324
19.2392
19.5271
19.9885
20.5539
21.0537
21.3893
21.552
21.5673
20.6171
20.5211
20.522
20.3943
19.9895
19.3998
18.8086
18.3568
18.1497
18.203
18.5088
19.0186
19.6333
20.2243
20.7043
21.0066
21.1072
20.9506
20.5783
20.1222
19.7144
19.4628
19.4049
19.54
19.8417
20.2402
20.6142
20.8214
20.8486
20.8092
19.728
19.6731
19.7267
19.673
19.3735
18.9266
18.4927
18.2119
18.1613
18.364
18.809
19.4416
20.1425
20.7847
21.2915
21.6084
21.7022
21.5171
21.0773
20.5318
19.9926
19.5856
19.3788
19.3648
19.5065
19.7419
19.9686
20.057
20.0047
19.9226
18.733
18.7331
18.8321
18.8372
18.6388
18.3223
18.0371
17.9062
17.9812
18.2947
18.8739
19.5932
20.3461
21.0171
21.5369
21.8706
21.9726
21.7942
21.3136
20.7007
20.0627
19.5017
19.1481
19.0086
19.0081
19.0964
19.1884
19.1797
19.0567
18.925
17.7117
17.7471
17.8704
17.9103
17.792
17.5832
17.4215
17.4017
17.5872
18.0292
18.6823
19.4402
20.2067
20.883
21.4073
21.7677
21.9028
21.7626
21.2914
20.6411
19.9333
19.2843
18.7834
18.4791
18.3629
18.323
18.2992
18.2191
18.0516
17.8913
16.6734
16.7138
16.8144
16.8456
16.7682
16.6322
16.5592
16.6704
16.9995
17.5304
18.2096
18.9524
19.6892
20.3437
20.8686
21.2737
21.4722
21.3992
21.0191
20.4047
19.6891
18.9763
18.3551
17.8855
17.586
17.4053
17.2968
17.1734
16.9933
16.8334
15.5465
15.5357
15.5474
15.5263
15.4882
15.4911
15.6022
15.8628
16.2746
16.8114
17.4333
18.0893
18.738
19.3414
19.8597
20.3247
20.6131
20.648
20.4178
19.9375
19.3214
18.6507
17.988
17.3907
16.8965
16.5158
16.2349
16.0156
15.8315
15.6945
15.0376
14.913
14.8228
14.7565
14.7263
14.7565
14.876
15.0945
15.4008
15.7792
16.2144
16.6874
17.1825
17.6869
18.1678
18.6724
19.043
19.2137
19.181
18.9334
18.5554
18.0977
17.592
17.0805
16.6019
16.1843
15.8396
15.5594
15.3388
15.1764
14.5246
14.2589
14.0086
13.7824
13.5864
13.4318
13.3353
13.3143
13.3676
13.4984
13.7043
13.9831
14.3257
14.7465
15.2055
15.7293
16.139
16.3827
16.457
16.3709
16.1694
15.9097
15.6342
15.373
15.1486
14.9708
14.8382
14.7432
14.6839
14.6505
7.86761
9.24949
9.68336
9.47008
8.95148
8.76524
9.23768
10.2139
11.38
12.6953
13.9908
15.2987
16.4973
17.7983
18.7635
19.5962
19.6914
19.2483
18.1037
16.8663
15.4254
13.9724
12.5474
11.1524
9.82812
8.68015
7.79902
7.34436
7.42383
7.57162
3.84567
4.36399
4.63494
4.63632
4.48636
4.43497
4.5705
4.86792
5.24073
5.65692
6.07863
6.50106
6.92061
7.35722
7.71509
7.98759
8.01865
7.80508
7.39583
6.92619
6.41461
5.91954
5.46677
5.04912
4.66825
4.33645
4.08078
3.92635
3.89486
3.8945
3.32658
3.67718
3.86696
3.83992
3.68863
3.61104
3.6592
3.81185
4.02085
4.25295
4.49135
4.73189
4.9791
5.23062
5.43803
5.58465
5.60189
5.45747
5.208
4.91404
4.60288
4.30941
4.0555
3.83959
3.65641
3.51067
3.41254
3.37227
3.37591
3.37498
3.28189
3.57973
3.70439
3.62588
3.44707
3.34376
3.34254
3.42908
3.56923
3.72644
3.88995
4.05712
4.22921
4.40098
4.54061
4.63192
4.6419
4.53604
4.35737
4.14324
3.91836
3.70926
3.53671
3.40308
3.30583
3.24792
3.23336
3.2624
3.29726
3.30519
3.47507
3.72557
3.78546
3.66641
3.46517
3.31453
3.26881
3.31422
3.41704
3.53801
3.66305
3.79323
3.92438
4.05216
4.15483
4.21436
4.2192
4.1373
3.99893
3.83071
3.65292
3.48842
3.35765
3.26652
3.21862
3.2174
3.26593
3.34641
3.41181
3.44077
3.81544
4.02663
4.03729
3.87513
3.62959
3.44321
3.36009
3.37451
3.44878
3.54239
3.64916
3.75629
3.86002
3.95878
4.03843
4.07723
4.08022
4.01545
3.90508
3.76897
3.62273
3.48034
3.37604
3.31841
3.30669
3.34938
3.44983
3.58021
3.67999
3.72958
4.28249
4.4644
4.44209
4.24196
3.95408
3.72329
3.60201
3.58755
3.63438
3.70549
3.78834
3.87286
3.95257
4.02788
4.09024
4.11516
4.11987
4.0699
3.98366
3.8757
3.75865
3.64271
3.56456
3.53259
3.55259
3.63267
3.77934
3.95706
4.08985
4.15981
4.87263
5.03561
4.99094
4.75808
4.43592
4.16127
3.99975
3.95009
3.96267
4.00172
4.05513
4.11365
4.16705
4.21824
4.26349
4.27845
4.28639
4.25391
4.1941
4.11742
4.03388
3.94834
3.90334
3.90372
3.95621
4.07309
4.26164
4.47707
4.63897
4.72656
5.58521
5.73793
5.67544
5.41996
5.07411
4.76034
4.55796
4.4653
4.4341
4.42949
4.44382
4.46922
4.49153
4.5154
4.54178
4.5476
4.56026
4.54874
4.51973
4.48013
4.43828
4.39365
4.39234
4.43296
4.52601
4.68144
4.90292
5.14343
5.32317
5.42384
6.41408
6.5611
6.48908
6.22535
5.86339
5.51943
5.27574
5.13426
5.04971
4.99242
4.95768
4.94083
4.92648
4.91887
4.92403
4.92008
4.93918
4.95201
4.95868
4.96261
4.97129
4.98069
5.0322
5.12304
5.26175
5.45341
5.69954
5.95086
6.1349
6.24175
7.34475
7.48942
7.4144
7.15352
6.7881
6.42484
6.14552
5.95363
5.81029
5.6924
5.60045
5.53332
5.4771
5.43427
5.41692
5.40244
5.42889
5.46843
5.51523
5.56824
5.63549
5.70833
5.8222
5.97023
6.15573
6.37691
6.63447
6.88371
7.06053
7.16805
8.35652
8.49872
8.42548
8.17782
7.82318
7.45519
7.14892
6.91027
6.70855
6.52624
6.37286
6.24988
6.14889
6.06868
6.02936
6.00278
6.03605
6.10277
6.19207
6.29765
6.42864
6.5707
6.75179
6.95877
7.18653
7.42717
7.68192
7.91653
8.07797
8.18064
9.41546
9.55347
9.48626
9.26157
8.93271
8.575
8.25472
7.97864
7.72569
7.48165
7.26855
7.089
6.94366
6.82744
6.76739
6.72722
6.76537
6.85646
6.98727
7.1446
7.33963
7.54886
7.79496
8.05727
8.31597
8.56269
8.80102
9.01027
9.15071
9.24504
10.4792
10.6104
10.5528
10.3594
10.0688
9.73697
9.41809
9.11928
8.82914
8.53566
8.27335
8.04161
7.85741
7.70903
7.63173
7.57742
7.61689
7.7259
7.89212
8.09457
8.34705
8.61239
8.91018
9.21556
9.4891
9.72938
9.94044
10.1162
10.2332
10.3183
11.4955
11.6187
11.5758
11.4216
11.179
10.8866
10.5852
10.2827
9.97629
9.65575
9.36131
9.08983
8.87731
8.70503
8.61664
8.54899
8.58488
8.70109
8.89116
9.12508
9.42007
9.72357
10.0459
10.3683
10.639
10.8614
11.0391
11.1782
11.2721
11.3493
12.403
12.5181
12.4967
12.3895
12.2048
11.9643
11.697
11.413
11.1168
10.8027
10.4979
10.2075
9.98301
9.79983
9.70952
9.63082
9.65703
9.76626
9.96302
10.2074
10.5217
10.8449
11.1483
11.452
11.6988
11.8913
12.0318
12.1337
12.2052
12.2752
13.1444
13.2519
13.2609
13.2081
13.0896
12.9127
12.6969
12.4564
12.2018
11.937
11.6459
11.3635
11.1487
10.9718
10.8914
10.8056
10.8155
10.901
11.0817
11.3102
11.6131
11.9233
12.1691
12.4131
12.6124
12.7619
12.8612
12.9254
12.9744
13.0368
13.6779
13.7767
13.8257
13.8345
13.7903
13.6886
13.5433
13.3733
13.1916
13.0062
12.7681
12.5244
12.3451
12.1956
12.1383
12.0512
12.0384
12.0827
12.2216
12.4042
12.6603
12.9184
13.0695
13.2185
13.3445
13.4358
13.4874
13.5111
13.5358
13.5901
13.9821
14.0741
14.1703
14.2543
14.2931
14.2787
14.2213
14.144
14.0667
13.9784
13.8315
13.6581
13.5405
13.4403
13.4228
13.3425
13.3028
13.2893
13.3609
13.468
13.6414
13.804
13.8419
13.8618
13.8899
13.9058
13.8993
13.8744
13.8712
13.9139
14.0769
14.1722
14.3256
14.4908
14.6235
14.7002
14.7418
14.7772
14.818
14.839
14.8054
14.7343
14.7013
14.669
14.7075
14.6465
14.5842
14.4993
14.4843
14.4908
14.5496
14.5817
14.4931
14.3695
14.2791
14.2056
14.1271
14.0437
14.0015
14.0248
14.0317
14.1422
14.3649
14.6138
14.8244
14.9871
15.1313
15.2836
15.4435
15.5803
15.6696
15.72
15.7891
15.8377
15.945
15.9136
15.8338
15.6808
15.5698
15.4608
15.3856
15.2826
15.0675
14.8135
14.594
14.4182
14.2553
14.1016
14.0047
13.9951
13.9644
14.1085
14.3689
14.664
14.9369
15.169
15.4074
15.6624
15.9343
16.1853
16.4005
16.5734
16.7537
16.8902
17.0704
17.0778
16.986
16.775
16.5728
16.3523
16.147
15.9087
15.5769
15.2072
14.8781
14.6085
14.3761
14.1639
14.0057
13.9479
13.9227
14.0759
14.3525
14.6595
14.9531
15.2479
15.561
15.9002
16.2685
16.6253
16.9579
17.244
17.5257
17.7487
17.9992
18.0525
17.9623
17.7166
17.4408
17.1267
16.8066
16.4424
16.0094
15.5421
15.1248
14.7795
14.4907
14.2302
14.0254
13.9336
13.8692
14.0177
14.2862
14.585
14.8797
15.1913
15.5432
15.9573
16.4037
16.8465
17.2778
17.6581
18.0238
18.3229
18.6313
18.7469
18.6756
18.4243
18.1008
17.7167
17.3042
16.8348
16.3198
15.7805
15.2933
14.8817
14.5409
14.2503
14.0211
13.9079
13.7423
13.8713
14.1038
14.3678
14.6486
14.9692
15.3495
15.7935
16.2791
16.773
17.2714
17.7277
18.1548
18.5123
18.8708
19.0623
19.0294
18.8016
18.4609
18.0329
17.5533
17.0105
16.4347
15.8298
15.2806
14.8344
14.4741
14.1746
13.9369
13.8031
13.4708
13.5599
13.7329
13.9448
14.1984
14.5083
14.8872
15.3331
15.8286
16.3507
16.8779
17.3677
17.8308
18.2301
18.6305
18.9101
18.9406
18.7592
18.4257
17.9804
17.4653
16.8843
16.274
15.6551
15.0806
14.6008
14.2219
13.919
13.686
13.5458
12.9936
13.0209
13.1215
13.2783
13.4899
13.765
14.1116
14.5267
14.9985
15.5034
16.0179
16.511
16.9885
17.4166
17.8534
18.2311
18.3549
18.239
17.9429
17.5098
16.9871
16.3967
15.7767
15.1628
14.5882
14.0961
13.7086
13.4167
13.2016
13.072
12.2504
12.2025
12.2407
12.3401
12.4998
12.7195
13.0054
13.3564
13.7621
14.2057
14.6676
15.1346
15.6053
16.0602
16.5376
17.0179
17.2457
17.2186
16.9729
16.564
16.057
15.4881
14.8926
14.3058
13.7605
13.281
12.8955
12.6134
12.4314
12.3243
11.1674
11.078
11.0738
11.1186
11.2098
11.3517
11.5501
11.8071
12.1172
12.4739
12.8701
13.296
13.7516
14.2372
14.769
15.3538
15.6772
15.7272
15.5347
15.1638
14.6884
14.1571
13.6069
13.0697
12.5745
12.1422
11.7831
11.5113
11.3355
11.2429
9.66109
9.55389
9.51196
9.51571
9.55486
9.63501
9.76254
9.94349
10.1779
10.4661
10.8053
11.1923
11.6356
12.1553
12.7495
13.4256
13.8199
13.9317
13.7838
13.4449
12.9899
12.4785
11.9588
11.4621
11.0124
10.624
10.3011
10.0389
9.85542
9.7505
9.90294
11.0718
11.548
11.5744
11.4286
11.4377
11.7679
12.3661
13.1184
14.0409
14.9655
16.0202
17.0537
18.3564
19.3714
20.3413
20.4873
20.4267
19.4777
18.4134
17.1352
15.8868
14.6751
13.528
12.4316
11.4123
10.5442
9.92368
9.56489
9.37652
4.63124
5.01754
5.28415
5.38908
5.37731
5.37729
5.44886
5.59731
5.79786
6.04035
6.31254
6.62886
6.98317
7.41152
7.79559
8.12314
8.1976
8.09298
7.75923
7.36227
6.93113
6.52735
6.16931
5.8574
5.58516
5.34065
5.12022
4.93037
4.75902
4.64297
3.75959
4.00511
4.17875
4.20486
4.11505
4.0468
4.04331
4.09336
4.17707
4.28362
4.41438
4.56933
4.75479
4.97397
5.18077
5.3545
5.40853
5.33021
5.14078
4.91097
4.67672
4.46816
4.29943
4.17164
4.07919
4.01088
3.95616
3.91038
3.8539
3.80403
3.50809
3.69156
3.79597
3.74518
3.59252
3.4745
3.42583
3.43134
3.46688
3.52033
3.59161
3.67669
3.78305
3.90639
4.02604
4.12371
4.1588
4.10083
3.97791
3.82884
3.68476
3.56379
3.47763
3.42951
3.41655
3.43192
3.46887
3.51429
3.53678
3.52872
3.47417
3.62581
3.66626
3.54915
3.35475
3.19733
3.11323
3.08609
3.09115
3.11354
3.14997
3.19505
3.2555
3.32541
3.39707
3.4526
3.47467
3.43205
3.34835
3.24778
3.15604
3.08549
3.04648
3.04432
3.08036
3.15053
3.25305
3.36045
3.44273
3.46881
3.58225
3.70356
3.6908
3.53465
3.29376
3.09656
2.97618
2.91888
2.89618
2.89383
2.90448
2.92151
2.95127
2.9878
3.03097
3.06199
3.07627
3.04531
2.98862
2.92181
2.86611
2.8307
2.82505
2.85876
2.93134
3.04717
3.20599
3.37599
3.49017
3.5452
3.80717
3.89827
3.84032
3.64076
3.37475
3.14176
2.97895
2.88191
2.82853
2.80002
2.78657
2.77944
2.78516
2.79777
2.82203
2.8376
2.84713
2.826
2.79097
2.75174
2.72619
2.721
2.74745
2.8156
2.93039
3.09111
3.28908
3.49755
3.6567
3.74103
4.14407
4.2104
4.11781
3.87885
3.57275
3.2949
3.08915
2.95475
2.86843
2.81026
2.769
2.73725
2.7203
2.71279
2.72245
2.72655
2.7323
2.72026
2.7052
2.69211
2.6967
2.72494
2.78584
2.88791
3.03885
3.24343
3.49016
3.74266
3.94062
4.05301
4.59605
4.64497
4.52419
4.24783
3.89906
3.5723
3.31777
3.13764
3.01036
2.91555
2.84226
2.78303
2.74271
2.71569
2.71189
2.70541
2.70655
2.70312
2.7081
2.72265
2.76059
2.82616
2.92733
3.07146
3.26687
3.5187
3.8141
4.11023
4.34446
4.4837
5.16638
5.20507
5.06133
4.7508
4.3586
3.97967
3.67003
3.43626
3.25965
3.12048
3.00835
2.91638
2.84979
2.80224
2.78511
2.76686
2.76085
2.76532
2.79093
2.8359
2.91272
3.02312
3.1728
3.36784
3.61572
3.92001
4.26484
4.60286
4.87041
5.03474
5.85311
5.88785
5.72646
5.38691
4.9541
4.52294
4.15413
3.85959
3.62505
3.43293
3.27437
3.14345
3.04692
2.97698
2.94614
2.9136
2.89585
2.9064
2.95321
3.03191
3.15414
3.31797
3.52598
3.78145
4.08934
4.44971
4.84292
5.21925
5.51601
5.703
6.64559
6.68179
6.50888
6.14829
5.68207
5.20309
4.77496
4.41515
4.11562
3.86251
3.65018
3.47404
3.34406
3.24999
3.20533
3.15477
3.11834
3.13167
3.19921
3.31443
3.4885
3.71439
3.99
4.31413
4.68716
5.10405
5.54148
5.95023
6.27083
6.47731
7.52269
7.56535
7.38823
7.01746
6.52951
6.01238
5.53002
5.10506
4.73693
4.4173
4.14554
3.91938
3.75364
3.63508
3.57739
3.50388
3.43941
3.44993
3.53579
3.68841
3.91922
4.21384
4.5637
4.96118
5.40019
5.86949
6.34334
6.77637
7.11433
7.33663
8.45332
8.50739
8.33459
7.96695
7.47279
6.93228
6.40671
5.92278
5.48794
5.1008
4.76747
4.48951
4.28865
4.14754
4.07921
3.97663
3.87267
3.87169
3.97083
4.15829
4.44725
4.81325
5.23904
5.70892
6.20892
6.72163
7.22073
7.66792
8.01619
8.25053
9.39726
9.46808
9.30942
8.96033
8.47856
7.93361
7.38162
6.8517
6.35873
5.90924
5.5175
5.19068
4.95961
4.80136
4.72678
4.58785
4.43241
4.40686
4.51156
4.72657
5.06959
5.50363
6.00023
6.53428
7.0838
7.62635
8.13685
8.58647
8.93739
9.17973
10.3067
10.3999
10.2666
9.95331
9.50508
8.97817
8.42154
7.86481
7.32943
6.82986
6.38929
6.02272
5.77145
5.60493
5.53078
5.34713
5.12957
5.06291
5.16243
5.3925
5.77854
6.26985
6.8243
7.40679
7.98799
8.54251
9.0481
9.48674
9.83148
10.0773
11.1302
11.2512
11.1555
10.8966
10.5046
10.0208
9.48485
8.92598
8.37034
7.83997
7.36693
6.97594
6.71941
6.55634
6.49104
6.25364
5.96685
5.84117
5.9222
6.15069
6.56158
7.09107
7.68314
8.29121
8.88105
9.42605
9.9083
10.3206
10.649
10.8929
11.8189
11.9712
11.926
11.7399
11.4271
11.0124
10.5245
9.99148
9.44264
8.90616
8.42352
8.02893
7.78522
7.63823
7.59089
7.29135
6.93341
6.73238
6.78116
6.98885
7.40064
7.94234
8.54545
9.15131
9.72297
10.2345
10.6735
11.0427
11.3429
11.5786
12.3338
12.516
12.535
12.4382
12.2252
11.9033
11.4903
11.0121
10.4996
9.98537
9.52037
9.14605
8.93403
8.81428
8.79373
8.42685
8.00082
7.71314
7.71729
7.88515
8.27163
8.79531
9.37871
9.9525
10.4781
10.932
11.3074
11.6164
11.8756
12.0964
12.6541
12.8563
12.9554
12.9574
12.8583
12.6468
12.332
11.9356
11.4882
11.0258
10.6068
10.2772
10.1132
10.0283
10.0426
9.60882
9.122
8.74491
8.69423
8.80649
9.14337
9.6187
10.151
10.6641
11.1183
11.4929
11.7872
12.0209
12.2258
12.4252
12.7838
12.9897
13.1679
13.2768
13.2947
13.2018
13.0007
12.7084
12.3525
11.9689
11.622
11.3582
11.2539
11.2073
11.2646
10.7705
10.2352
9.77504
9.66247
9.7087
9.97684
10.3781
10.8316
11.2598
11.623
11.903
12.1047
12.2536
12.3924
12.5672
12.7238
12.931
13.1664
13.3765
13.5142
13.5338
13.4514
13.2757
13.0359
12.7524
12.4981
12.3152
12.2764
12.2696
12.3766
11.8387
11.2696
10.742
10.5662
10.5389
10.7267
11.0349
11.3899
11.7162
11.9754
12.154
12.2612
12.3252
12.4056
12.5583
12.5137
12.7223
12.9949
13.27
13.4874
13.6157
13.6445
13.5918
13.4857
13.3149
13.1655
13.0703
13.0983
13.1344
13.2968
12.7423
12.1583
11.5866
11.3508
11.2418
11.345
11.5492
11.7952
12.0119
12.1585
12.2377
12.2627
12.2503
12.2585
12.3692
12.1583
12.3603
12.6459
12.9583
13.2312
13.4311
13.544
13.65
13.6578
13.601
13.5592
13.5507
13.6455
13.7307
13.9542
13.4234
12.8468
12.2597
11.967
11.7721
11.7872
11.8839
12.0194
12.1285
12.1544
12.1439
12.0882
12.0214
11.9792
12.0432
11.6766
11.8528
12.1316
12.4437
12.7342
12.9673
13.1917
13.4157
13.5211
13.5681
13.6269
13.7021
13.8584
14.0034
14.2993
13.8456
13.3048
12.7216
12.3791
12.0994
12.0184
12.0094
12.04
12.0513
11.9721
11.8451
11.7358
11.6384
11.569
11.5935
11.0558
11.2109
11.4549
11.7257
12.0015
12.2896
12.6061
12.8757
13.0528
13.1913
13.3382
13.4913
13.705
13.9213
14.3141
13.9976
13.5223
12.9535
12.569
12.2079
12.0239
11.9126
11.8386
11.7539
11.6135
11.4099
11.2228
11.0862
11.0058
11.0053
10.3203
10.4218
10.6009
10.8402
11.1169
11.437
11.7573
12.0359
12.262
12.4717
12.6901
12.9114
13.1883
13.4936
14.01
13.8919
13.5043
12.9802
12.534
12.0926
11.8049
11.587
11.413
11.2424
11.0532
10.8281
10.6044
10.4206
10.3132
10.289
9.45098
9.4998
9.63065
9.84235
10.1016
10.3828
10.668
10.9339
11.1922
11.4502
11.7229
12.0042
12.3463
12.7626
13.4282
13.5634
13.2953
12.8222
12.3159
11.7773
11.377
11.0535
10.7835
10.5344
10.2952
10.0592
9.83598
9.64885
9.51527
9.4574
8.45932
8.47159
8.56109
8.72116
8.92866
9.15745
9.40081
9.65528
9.92695
10.2125
10.5231
10.8558
11.2639
11.8081
12.6383
13.065
12.9431
12.5157
11.9451
11.306
10.7843
10.356
9.99288
9.66978
9.37875
9.12006
8.89374
8.70709
8.56997
8.48943
7.32365
7.32193
7.38438
7.50915
7.67556
7.86617
8.08205
8.32423
8.59421
8.88917
9.21907
9.59087
10.0631
10.7382
11.731
12.4624
12.4889
12.1151
11.4833
10.7444
10.0999
9.5641
9.11126
8.71719
8.37383
8.07887
7.83242
7.63102
7.47938
7.37361
11.2887
12.2926
12.6741
12.7134
12.5691
12.3571
12.3342
12.604
13.0827
13.7845
14.5114
15.5008
16.5292
18.1003
19.4454
20.8818
20.8934
21.2737
20.3056
19.1766
17.7964
16.5416
15.387
14.3775
13.4623
12.5966
11.8306
11.2045
10.8282
10.524
5.00694
5.31759
5.54173
5.62943
5.58866
5.49823
5.45258
5.48374
5.58146
5.74415
5.94906
6.21975
6.54113
6.97179
7.401
7.82734
7.92723
7.93811
7.62078
7.23697
6.82916
6.47174
6.1733
5.93351
5.73675
5.55502
5.37976
5.21163
5.06299
4.9447
3.84916
4.02154
4.16134
4.18761
4.09773
3.99017
3.92169
3.90471
3.92936
3.98867
4.07782
4.19816
4.35509
4.55856
4.78021
5.00522
5.09149
5.05674
4.87196
4.65206
4.4418
4.27072
4.14631
4.06662
4.02213
3.99659
3.97698
3.95377
3.90659