/*--------------------------------*- C++ -*----------------------------------*\
| =========                 |                                                 |
| \\      /  F ield         | OpenFOAM: The Open Source CFD Toolbox           |
|  \\    /   O peration     | Version:  5.0                                   |
|   \\  /    A nd           | Web:      www.OpenFOAM.org                      |
|    \\/     M anipulation  |                                                 |
\*---------------------------------------------------------------------------*/
FoamFile
{
    version     2.0;
    format      ascii;
    class       volScalarField;
    location    "100/air";
    object      k;
}
// * * * * * * * * * * * * * * * * * * * * * * * * * * * * * * * * * * * * * //

dimensions      [0 2 -2 0 0 0 0];

internalField   nonuniform List<scalar> 
243000
(
0.0362595
0.0409591
0.0439436
0.0437059
0.0413848
0.039568
0.0405742
0.0451201
0.0507731
0.0565225
0.0618233
0.0667728
0.0711898
0.0753477
0.0784768
0.0811005
0.0818747
0.0803194
0.0763965
0.0724482
0.0679987
0.0633962
0.0586567
0.0538507
0.0489648
0.0442564
0.0403656
0.0377822
0.0367
0.036767
0.0681804
0.0729538
0.0773193
0.0765283
0.072487
0.0699649
0.0728135
0.0800677
0.0884652
0.0970125
0.10497
0.112717
0.119678
0.126567
0.131932
0.136664
0.138555
0.136546
0.130014
0.123337
0.115789
0.108097
0.100216
0.0925079
0.0849246
0.0776894
0.0715746
0.0672751
0.0653596
0.0653443
0.0814766
0.0860723
0.091549
0.0917858
0.08846
0.0870325
0.0913349
0.0995894
0.108713
0.117885
0.12639
0.13463
0.142176
0.149744
0.155649
0.160736
0.162795
0.160822
0.153814
0.146513
0.138229
0.129774
0.121132
0.112607
0.104215
0.0961555
0.0891854
0.0840384
0.0807364
0.0784871
0.0908515
0.0946626
0.10067
0.102198
0.100431
0.100698
0.106044
0.114752
0.124096
0.133428
0.1421
0.150585
0.158468
0.166438
0.172632
0.177762
0.179694
0.177836
0.17069
0.163153
0.154474
0.145564
0.136523
0.127599
0.118817
0.110393
0.103023
0.0972153
0.0923341
0.0874394
0.0997298
0.103112
0.108445
0.110616
0.110613
0.112648
0.118724
0.127668
0.13711
0.146563
0.15551
0.164432
0.172805
0.181339
0.187945
0.193157
0.194852
0.193029
0.185675
0.177845
0.168628
0.159122
0.149556
0.140222
0.131123
0.122487
0.114963
0.108575
0.10215
0.0950549
0.110378
0.114587
0.117484
0.118803
0.120288
0.123895
0.13053
0.139701
0.149345
0.159148
0.168697
0.178421
0.187613
0.197062
0.204379
0.209905
0.211401
0.209503
0.201675
0.193276
0.183162
0.17269
0.162245
0.152219
0.142674
0.133799
0.126177
0.119214
0.111486
0.103438
0.123916
0.129038
0.129492
0.128184
0.130343
0.135239
0.142369
0.151899
0.161979
0.172506
0.183028
0.193897
0.20422
0.214929
0.223284
0.229428
0.230877
0.228871
0.220318
0.211025
0.199627
0.187806
0.176063
0.164961
0.154656
0.145384
0.137612
0.130135
0.121541
0.11456
0.139847
0.145692
0.144688
0.139921
0.141716
0.147551
0.155165
0.165222
0.176017
0.187586
0.199352
0.211585
0.223205
0.235371
0.245001
0.252041
0.253664
0.251654
0.242297
0.231891
0.218942
0.205521
0.192175
0.179662
0.168247
0.158325
0.150308
0.142435
0.13362
0.128836
0.158403
0.164621
0.162543
0.155059
0.15546
0.161795
0.169869
0.180586
0.192267
0.205008
0.218098
0.231771
0.244658
0.258265
0.269247
0.277365
0.27939
0.277578
0.267613
0.256064
0.241534
0.226479
0.211445
0.197364
0.184633
0.173883
0.165496
0.15741
0.149029
0.145999
0.181413
0.18727
0.184445
0.174519
0.172739
0.178963
0.187391
0.198756
0.211279
0.225092
0.239372
0.254386
0.268383
0.283206
0.295438
0.304709
0.307305
0.305923
0.295824
0.283316
0.267416
0.250944
0.234413
0.218872
0.204847
0.19325
0.184474
0.176424
0.168969
0.166736
0.210064
0.215822
0.211665
0.19916
0.194601
0.199928
0.208424
0.22022
0.233296
0.247877
0.263028
0.279118
0.293984
0.309681
0.322901
0.333309
0.336599
0.335908
0.326201
0.313165
0.296343
0.278872
0.261281
0.244652
0.229622
0.217344
0.208315
0.200651
0.194515
0.193338
0.244747
0.250242
0.244525
0.229458
0.221813
0.225217
0.233317
0.245116
0.258258
0.273136
0.288729
0.305504
0.320933
0.337109
0.350992
0.362446
0.366525
0.366756
0.357896
0.344934
0.327786
0.309907
0.291871
0.274764
0.259269
0.246688
0.237728
0.230902
0.226441
0.226535
0.285294
0.290096
0.282728
0.265325
0.254506
0.255107
0.26198
0.273183
0.285801
0.300403
0.315939
0.332957
0.348568
0.36487
0.379101
0.391464
0.396412
0.397712
0.390068
0.377829
0.360989
0.343378
0.325602
0.308776
0.293535
0.281223
0.272807
0.267349
0.264909
0.26641
0.330809
0.334375
0.325314
0.305941
0.292016
0.289326
0.294029
0.303718
0.315192
0.328948
0.343927
0.360728
0.376133
0.392263
0.406572
0.419708
0.42558
0.428065
0.421901
0.410942
0.395006
0.378331
0.361523
0.345741
0.331531
0.32021
0.312921
0.309364
0.309166
0.312115
0.379618
0.381454
0.370719
0.349787
0.33301
0.326826
0.328498
0.335771
0.345322
0.357714
0.371707
0.387863
0.402719
0.418459
0.432623
0.446432
0.453275
0.457037
0.452546
0.443243
0.428731
0.413559
0.398355
0.384292
0.371857
0.362265
0.356703
0.355483
0.357497
0.361906
0.429524
0.429301
0.416953
0.394818
0.375539
0.365792
0.3638
0.367809
0.374756
0.385263
0.397968
0.413179
0.42724
0.442444
0.456307
0.470703
0.478524
0.483638
0.480955
0.47351
0.460811
0.447574
0.434495
0.422734
0.412704
0.405509
0.402269
0.4035
0.407646
0.413417
0.478019
0.475619
0.461651
0.438532
0.417046
0.403669
0.39758
0.397627
0.401536
0.409831
0.421137
0.435278
0.448446
0.46304
0.476517
0.491394
0.500132
0.506574
0.505709
0.500142
0.489488
0.478416
0.467841
0.458866
0.451815
0.447618
0.447228
0.45089
0.457054
0.464008
0.522305
0.517535
0.501785
0.477671
0.454149
0.437121
0.426659
0.422581
0.423418
0.429589
0.439581
0.452716
0.465036
0.478979
0.492046
0.507268
0.516843
0.524465
0.525209
0.521307
0.512587
0.503659
0.49572
0.489807
0.486167
0.485594
0.488419
0.494674
0.502826
0.510817
0.558548
0.551113
0.53339
0.508236
0.482839
0.462343
0.447766
0.440133
0.438469
0.442967
0.451869
0.464101
0.475616
0.488852
0.501512
0.51702
0.527407
0.536113
0.53808
0.535442
0.528207
0.521001
0.515327
0.512256
0.512068
0.515333
0.52172
0.53077
0.541036
0.550048
0.581646
0.571537
0.551965
0.525856
0.499056
0.4761
0.458714
0.448654
0.445292
0.448764
0.456862
0.468194
0.478917
0.49136
0.503455
0.519038
0.53015
0.540063
0.543029
0.541384
0.535319
0.529226
0.524967
0.523858
0.526378
0.53295
0.542582
0.554245
0.566545
0.576377
0.587354
0.57538
0.555099
0.52916
0.502007
0.477985
0.459213
0.447802
0.444052
0.447892
0.456121
0.467013
0.47714
0.488239
0.498911
0.512814
0.5242
0.53496
0.538637
0.537683
0.532482
0.52715
0.523844
0.523926
0.527946
0.536323
0.547852
0.561112
0.574864
0.585204
0.573636
0.56092
0.541272
0.516676
0.490687
0.46969
0.45364
0.444312
0.442014
0.446358
0.454734
0.465343
0.475041
0.4852
0.494831
0.506815
0.516144
0.524784
0.527201
0.525401
0.520005
0.514737
0.511826
0.512261
0.516716
0.52546
0.53738
0.550806
0.564464
0.574354
0.541941
0.529943
0.515541
0.49749
0.47708
0.459448
0.446239
0.439283
0.438664
0.443682
0.45233
0.46279
0.472309
0.481893
0.490787
0.50103
0.508675
0.515516
0.51676
0.514179
0.50835
0.502339
0.498204
0.497083
0.49945
0.505543
0.514277
0.524569
0.536658
0.544978
0.505176
0.498209
0.489259
0.476813
0.461459
0.447368
0.437167
0.432712
0.43376
0.439649
0.448742
0.459304
0.46896
0.478407
0.48696
0.495871
0.502125
0.507245
0.507134
0.503472
0.496804
0.489794
0.484374
0.481695
0.482023
0.485472
0.491131
0.497943
0.505043
0.508859
0.470053
0.466922
0.462675
0.455082
0.444264
0.43382
0.426725
0.424755
0.427472
0.434502
0.444376
0.455498
0.465809
0.475764
0.484652
0.492914
0.498071
0.501357
0.499503
0.494071
0.485858
0.47739
0.470404
0.465984
0.464304
0.465158
0.46785
0.471253
0.474005
0.474141
0.436762
0.436638
0.436387
0.43292
0.426307
0.419578
0.415718
0.416279
0.421083
0.429858
0.441242
0.453745
0.465736
0.477338
0.48776
0.496521
0.501049
0.502578
0.498291
0.489913
0.478782
0.467549
0.458098
0.451209
0.447084
0.44527
0.44498
0.445005
0.443937
0.441153
0.407277
0.409501
0.412483
0.412753
0.410347
0.407786
0.407842
0.411977
0.420238
0.432449
0.446859
0.462222
0.477162
0.491937
0.505733
0.516899
0.522063
0.522444
0.51553
0.503014
0.486855
0.470169
0.455442
0.443924
0.435479
0.429673
0.425624
0.42199
0.417254
0.411723
0.395462
0.399797
0.405686
0.409891
0.412741
0.416315
0.422874
0.433357
0.447686
0.464639
0.482798
0.501079
0.518753
0.536604
0.554668
0.570713
0.579005
0.580698
0.573661
0.558297
0.537578
0.514832
0.492358
0.472412
0.455496
0.441566
0.430149
0.420021
0.409898
0.399789
0.482405
0.485009
0.489932
0.496275
0.503826
0.513452
0.526295
0.541027
0.556283
0.571006
0.584905
0.59816
0.61119
0.625252
0.640126
0.654302
0.664598
0.671277
0.67389
0.671509
0.663225
0.649509
0.63137
0.610279
0.587686
0.564891
0.5436
0.52367
0.505073
0.487913
0.691257
0.685692
0.678852
0.671692
0.664868
0.658792
0.653891
0.650314
0.648086
0.647198
0.647785
0.650255
0.654945
0.662622
0.672755
0.684966
0.69596
0.70502
0.712468
0.717109
0.719084
0.719137
0.71777
0.715597
0.713056
0.71039
0.707625
0.704568
0.700967
0.696091
0.0873827
0.0991396
0.0996581
0.0927974
0.0847462
0.0796539
0.0814978
0.0884147
0.0969571
0.106179
0.115183
0.124162
0.132835
0.141387
0.147622
0.152695
0.15393
0.15083
0.143728
0.135984
0.1267
0.117687
0.108885
0.100254
0.0917019
0.0837656
0.0775931
0.075255
0.0779236
0.0824995
0.178946
0.201356
0.202624
0.189783
0.170374
0.159813
0.163131
0.174927
0.189493
0.205933
0.222858
0.240796
0.256933
0.272632
0.285105
0.29384
0.296057
0.289498
0.275954
0.260072
0.241981
0.223672
0.206038
0.190212
0.175781
0.163355
0.154422
0.153075
0.161065
0.173407
0.232906
0.256128
0.257191
0.242304
0.22112
0.210925
0.215697
0.229079
0.245495
0.264023
0.283257
0.302413
0.320298
0.337666
0.351334
0.360097
0.362135
0.35501
0.340135
0.322116
0.30146
0.281006
0.261395
0.2435
0.227541
0.213956
0.204334
0.20321
0.211344
0.224047
0.280196
0.300327
0.301727
0.286166
0.26472
0.255244
0.260368
0.274243
0.291558
0.311228
0.331094
0.350951
0.369445
0.387195
0.401075
0.409372
0.411064
0.404054
0.38898
0.37023
0.348373
0.326496
0.305953
0.28701
0.270351
0.256719
0.247828
0.24783
0.25604
0.268029
0.327336
0.343467
0.34533
0.331052
0.310266
0.300753
0.305164
0.318985
0.336858
0.357059
0.377303
0.397623
0.416277
0.434117
0.448093
0.456072
0.457552
0.450871
0.435896
0.416784
0.394142
0.371201
0.349573
0.330201
0.313018
0.299826
0.292752
0.294755
0.303145
0.31266
0.377239
0.389929
0.392337
0.379957
0.361242
0.351555
0.354416
0.367556
0.385379
0.405069
0.425341
0.445672
0.464238
0.481984
0.496034
0.503993
0.505532
0.499394
0.484683
0.465437
0.442313
0.418849
0.39649
0.376622
0.359982
0.347825
0.343278
0.346689
0.35478
0.36118
0.431694
0.442388
0.444959
0.434667
0.418272
0.408027
0.409117
0.421135
0.437591
0.456452
0.476022
0.495898
0.514019
0.531394
0.545376
0.553569
0.55543
0.550108
0.53594
0.516911
0.493807
0.470423
0.448021
0.428125
0.412264
0.402037
0.399796
0.404565
0.411331
0.415247
0.491859
0.501624
0.504006
0.495573
0.481698
0.470857
0.470097
0.479693
0.494206
0.511517
0.529591
0.548433
0.565632
0.582155
0.595721
0.604115
0.606391
0.602102
0.588846
0.570511
0.548195
0.525731
0.504144
0.484962
0.470173
0.462057
0.462173
0.467568
0.473373
0.475797
0.557276
0.566421
0.568697
0.561657
0.549997
0.539407
0.536633
0.543097
0.555104
0.570056
0.585932
0.603077
0.618776
0.633845
0.646417
0.654512
0.657119
0.654078
0.642246
0.625298
0.60467
0.584123
0.564319
0.546765
0.533672
0.527741
0.52948
0.535354
0.540562
0.542422
0.626347
0.635847
0.638169
0.632094
0.62193
0.611561
0.607177
0.610457
0.619296
0.631146
0.644214
0.659055
0.672719
0.685595
0.696544
0.704143
0.707199
0.705709
0.6959
0.681138
0.663075
0.645415
0.628315
0.613163
0.602234
0.598335
0.600961
0.606831
0.611495
0.613623
0.702094
0.7117
0.713981
0.708383
0.697844
0.686769
0.680702
0.680738
0.685842
0.693994
0.703639
0.71555
0.726755
0.737179
0.746233
0.753341
0.757115
0.757728
0.750571
0.738824
0.724248
0.710383
0.696971
0.685088
0.676684
0.674333
0.677278
0.683112
0.68822
0.691764
0.784887
0.793734
0.79562
0.790471
0.779568
0.766671
0.757679
0.75387
0.754432
0.758296
0.764014
0.772541
0.781097
0.789066
0.796166
0.80293
0.807634
0.810217
0.806103
0.79797
0.78767
0.778429
0.769643
0.762049
0.757191
0.756957
0.7607
0.766959
0.772599
0.776846
0.872839
0.880262
0.88138
0.876572
0.865403
0.850747
0.838375
0.829949
0.825379
0.824112
0.825418
0.830235
0.836039
0.841796
0.847155
0.853503
0.858938
0.86327
0.862292
0.85806
0.852543
0.848409
0.844985
0.842506
0.842013
0.844392
0.849515
0.856435
0.862524
0.866815
0.963033
0.968654
0.968796
0.964259
0.953074
0.936908
0.920976
0.907581
0.897543
0.891034
0.887703
0.888531
0.891608
0.895481
0.899343
0.905348
0.911289
0.917139
0.919039
0.918669
0.918041
0.919112
0.921336
0.924387
0.928533
0.934182
0.941099
0.948637
0.954871
0.95857
1.05243
1.05609
1.05549
1.05138
1.04041
1.0229
1.00341
0.984894
0.969185
0.957387
0.949537
0.94646
0.946992
0.949397
0.951992
0.958063
0.964729
0.971901
0.97628
0.979454
0.983311
0.989319
0.997009
1.00552
1.01436
1.02345
1.0323
1.04025
1.04621
1.04958
1.13748
1.13973
1.13931
1.13598
1.1252
1.10614
1.08285
1.05884
1.03715
1.01986
1.00783
1.00169
1.00029
1.00179
1.00377
1.01011
1.01749
1.0265
1.03313
1.03934
1.04699
1.05747
1.07022
1.08395
1.09721
1.10961
1.1202
1.12824
1.13331
1.13619
1.21566
1.21747
1.218
1.21532
1.20388
1.18219
1.1537
1.12307
1.09516
1.07328
1.05854
1.05099
1.04907
1.05057
1.05276
1.05918
1.06694
1.07728
1.08571
1.09428
1.10475
1.11892
1.13625
1.15527
1.17374
1.1899
1.20223
1.21024
1.21401
1.21528
1.28473
1.28604
1.28551
1.2813
1.26726
1.24116
1.20622
1.16875
1.13683
1.11332
1.09866
1.09246
1.09227
1.09531
1.09861
1.10453
1.11136
1.1211
1.12933
1.13823
1.14964
1.16614
1.18733
1.21144
1.23572
1.25764
1.27376
1.28284
1.28593
1.28552
1.33713
1.33404
1.33027
1.32299
1.3041
1.2722
1.23099
1.19128
1.16156
1.14118
1.13001
1.12726
1.13051
1.13659
1.14233
1.14859
1.1543
1.16106
1.1654
1.17004
1.17797
1.19325
1.21524
1.2418
1.27063
1.29986
1.32224
1.33493
1.34043
1.34057
1.35653
1.34853
1.34097
1.33043
1.30746
1.27344
1.23472
1.19856
1.17272
1.15751
1.15142
1.15394
1.16205
1.17244
1.1817
1.18944
1.1946
1.19873
1.19876
1.19788
1.19989
1.20815
1.22323
1.24554
1.27453
1.30779
1.33395
1.35084
1.36068
1.36232
1.33228
1.32059
1.31085
1.30243
1.28359
1.25419
1.22038
1.19065
1.17024
1.16026
1.16085
1.17001
1.18398
1.19955
1.21299
1.22341
1.22868
1.2309
1.22667
1.21981
1.2148
1.21533
1.22318
1.2389
1.26076
1.28626
1.30873
1.32486
1.33727
1.34005
1.27548
1.26652
1.2628
1.257
1.24168
1.2159
1.18737
1.16413
1.15113
1.14948
1.15762
1.17428
1.19466
1.21537
1.23275
1.24583
1.25192
1.25293
1.24497
1.23231
1.22003
1.21259
1.21225
1.2197
1.23396
1.25194
1.26845
1.27851
1.28362
1.284
1.20623
1.19952
1.19747
1.1925
1.17995
1.16084
1.14073
1.12667
1.12279
1.12919
1.14511
1.16911
1.19593
1.22143
1.24234
1.2576
1.26416
1.26329
1.25144
1.23286
1.21258
1.19721
1.18875
1.18764
1.19343
1.20371
1.21384
1.21855
1.21764
1.21533
1.12435
1.11841
1.11943
1.11887
1.1123
1.10109
1.09011
1.08534
1.08955
1.10341
1.12685
1.15742
1.18937
1.21895
1.24293
1.26011
1.26728
1.26506
1.24959
1.22592
1.19872
1.1748
1.15818
1.14842
1.14494
1.14557
1.14675
1.14461
1.13927
1.13455
1.04372
1.04199
1.04697
1.05063
1.04993
1.04573
1.04268
1.0452
1.056
1.07607
1.10608
1.14139
1.17698
1.20961
1.23598
1.25514
1.2634
1.2613
1.24343
1.2158
1.18324
1.15177
1.12692
1.10964
1.09797
1.09015
1.08332
1.07445
1.06321
1.0542
0.979875
0.981822
0.989718
0.996381
0.999372
1
1.00214
1.00954
1.02534
1.05115
1.08524
1.12297
1.16035
1.19485
1.22318
1.24473
1.25496
1.2544
1.2364
1.20672
1.17051
1.13401
1.10185
1.07683
1.05903
1.04459
1.03167
1.0178
1.00227
0.989799
0.936525
0.940607
0.949182
0.956304
0.960632
0.96332
0.968062
0.979991
1.001
1.03046
1.06598
1.10382
1.14133
1.17666
1.20687
1.23157
1.24485
1.24718
1.23201
1.20243
1.16496
1.12561
1.08851
1.05671
1.03126
1.01079
0.994035
0.977486
0.959806
0.945329
0.910278
0.914349
0.920685
0.925982
0.930871
0.937273
0.947815
0.964658
0.988437
1.0182
1.0521
1.08763
1.12344
1.15881
1.19112
1.22008
1.23779
1.24455
1.23494
1.20962
1.17474
1.13553
1.09553
1.05761
1.02425
0.996468
0.973119
0.952637
0.933817
0.918193
0.932274
0.933572
0.936706
0.94032
0.945087
0.952062
0.962553
0.977677
0.997824
1.02218
1.04958
1.0803
1.11272
1.14718
1.18205
1.21622
1.23969
1.25228
1.25025
1.23238
1.20404
1.16988
1.13301
1.0963
1.06206
1.03142
1.00445
0.980431
0.958825
0.940163
1.02982
1.02511
1.02117
1.01811
1.0162
1.01591
1.01816
1.0237
1.03317
1.04694
1.0646
1.08676
1.11319
1.14591
1.18234
1.22108
1.25029
1.26925
1.27469
1.26684
1.2484
1.22392
1.19663
1.16901
1.14264
1.11831
1.0961
1.07564
1.05671
1.03948
0.129009
0.140017
0.140951
0.135685
0.127824
0.123227
0.124855
0.130984
0.138449
0.146805
0.154783
0.162747
0.16995
0.177981
0.184029
0.189515
0.190691
0.18877
0.182527
0.17581
0.167637
0.159156
0.150567
0.141737
0.132893
0.125022
0.119198
0.117316
0.120917
0.125595
0.264991
0.285456
0.289868
0.282814
0.271578
0.264209
0.263886
0.270405
0.279892
0.291136
0.302716
0.315007
0.327665
0.342186
0.35466
0.364155
0.366616
0.361295
0.348834
0.334484
0.318524
0.303305
0.289787
0.277852
0.267635
0.259912
0.255082
0.255848
0.260394
0.265876
0.331869
0.353359
0.35884
0.352039
0.340299
0.332169
0.331086
0.33716
0.346717
0.357934
0.369627
0.382197
0.395515
0.410798
0.423995
0.433516
0.436295
0.430824
0.41792
0.402488
0.385383
0.369066
0.354902
0.34309
0.333514
0.326863
0.323632
0.324904
0.328729
0.332624
0.381394
0.401667
0.406806
0.400288
0.388634
0.380367
0.37858
0.383729
0.392763
0.403311
0.414481
0.426642
0.439647
0.454549
0.467523
0.476563
0.479384
0.474418
0.462092
0.446894
0.429933
0.413636
0.399708
0.388654
0.380329
0.375264
0.373759
0.375606
0.378248
0.380114
0.426882
0.445101
0.449286
0.442268
0.430444
0.421901
0.419269
0.423548
0.432138
0.442205
0.453
0.464814
0.477365
0.491666
0.504247
0.512709
0.515432
0.511066
0.499541
0.484916
0.468344
0.452158
0.438451
0.427963
0.420737
0.417308
0.4176
0.42019
0.422173
0.423005
0.473542
0.489664
0.492627
0.484887
0.471976
0.462413
0.458932
0.462621
0.470815
0.480586
0.491186
0.502738
0.514823
0.528479
0.540657
0.548621
0.551257
0.547481
0.53683
0.52293
0.506873
0.490748
0.477182
0.467002
0.460634
0.45871
0.460678
0.464614
0.466906
0.46732
0.524094
0.538468
0.540196
0.531442
0.517203
0.506087
0.501564
0.504639
0.512335
0.521773
0.532109
0.543299
0.554779
0.567668
0.579346
0.586861
0.589485
0.586358
0.576763
0.563835
0.548559
0.532636
0.519366
0.509514
0.504039
0.503357
0.506983
0.512608
0.515676
0.516263
0.580193
0.593199
0.593754
0.583811
0.568548
0.555943
0.550314
0.552316
0.559153
0.56778
0.577417
0.58795
0.598547
0.610406
0.621394
0.628469
0.631152
0.628851
0.620628
0.609099
0.595113
0.579921
0.567468
0.558381
0.55387
0.554252
0.559353
0.566285
0.570356
0.571449
0.642752
0.654708
0.654053
0.643181
0.627361
0.61354
0.606837
0.60745
0.61274
0.619911
0.628235
0.63764
0.646961
0.657421
0.667417
0.673958
0.676745
0.675498
0.669092
0.659511
0.647518
0.633901
0.622998
0.615278
0.612122
0.613539
0.619524
0.627126
0.631812
0.633503
0.711873
0.722889
0.721428
0.710241
0.694115
0.67955
0.671689
0.670747
0.673909
0.679011
0.685389
0.693052
0.700662
0.709283
0.717934
0.723728
0.726596
0.726633
0.7225
0.715462
0.706242
0.695228
0.686688
0.680955
0.679337
0.681597
0.688
0.695541
0.700236
0.702324
0.786884
0.797093
0.795142
0.784107
0.76824
0.753448
0.744679
0.742098
0.742866
0.745393
0.749269
0.754576
0.760036
0.766415
0.773359
0.7781
0.780978
0.782428
0.780983
0.777009
0.771278
0.763802
0.758387
0.755193
0.755115
0.757906
0.764048
0.770941
0.775123
0.77739
0.866593
0.875978
0.873765
0.863333
0.848358
0.834013
0.824685
0.820511
0.81901
0.81866
0.8197
0.82217
0.825155
0.828958
0.833889
0.837243
0.839948
0.842896
0.844325
0.843803
0.842039
0.838674
0.836875
0.836571
0.837909
0.840901
0.84617
0.851888
0.85523
0.857411
0.948758
0.957265
0.95503
0.945665
0.932263
0.919008
0.909645
0.90421
0.9007
0.897619
0.89583
0.89527
0.895599
0.896664
0.899416
0.90106
0.903287
0.907637
0.911956
0.914933
0.917292
0.918092
0.919958
0.922397
0.924922
0.927756
0.931711
0.935877
0.938191
0.94012
1.03014
1.03776
1.03581
1.02802
1.01679
1.00531
0.996547
0.990439
0.985503
0.980246
0.976112
0.972633
0.970422
0.968834
0.969442
0.96911
0.97043
0.975852
0.982785
0.989004
0.995221
0.999606
1.00454
1.0093
1.0124
1.01467
1.017
1.01939
1.02062
1.02227
1.10704
1.11377
1.11242
1.10667
1.09816
1.08912
1.08166
1.07572
1.07029
1.06393
1.05827
1.05243
1.04812
1.04424
1.04304
1.04059
1.04051
1.04644
1.05537
1.06414
1.07345
1.08051
1.08716
1.09305
1.09609
1.09743
1.09799
1.09849
1.09871
1.10011
1.17529
1.18122
1.18089
1.17762
1.17235
1.16633
1.16095
1.15619
1.15151
1.14572
1.13956
1.13243
1.12679
1.12131
1.11882
1.11437
1.11242
1.11814
1.12812
1.13829
1.14942
1.15824
1.1643
1.16955
1.17165
1.17166
1.17033
1.16894
1.16819
1.16945
1.23064
1.23583
1.2371
1.23677
1.23527
1.23289
1.23042
1.22806
1.22567
1.22263
1.21713
1.2101
1.20429
1.1982
1.19514
1.18905
1.185
1.18966
1.19941
1.20945
1.22065
1.22943
1.23282
1.23528
1.23529
1.23335
1.22987
1.2265
1.22476
1.22591
1.26946
1.27404
1.27718
1.28044
1.28334
1.28529
1.28674
1.28819
1.28978
1.29107
1.28831
1.28303
1.27842
1.27292
1.27022
1.26313
1.25706
1.25983
1.26788
1.27604
1.28518
1.29165
1.29027
1.28788
1.28429
1.27936
1.27325
1.26768
1.26477
1.26576
1.28925
1.29348
1.29889
1.30624
1.31427
1.32138
1.3279
1.3347
1.34227
1.34898
1.35102
1.34926
1.3474
1.34378
1.34239
1.33517
1.32751
1.3277
1.33263
1.3371
1.34194
1.34353
1.33604
1.32642
1.31752
1.30838
1.2987
1.29048
1.28608
1.28652
1.29003
1.29427
1.30253
1.31433
1.32818
1.34115
1.35413
1.36783
1.38235
1.39539
1.40377
1.40742
1.40978
1.40937
1.41041
1.40396
1.39526
1.39244
1.39321
1.3924
1.39084
1.385
1.37006
1.35203
1.33621
1.32159
1.30704
1.29553
1.28908
1.28803
1.27426
1.27986
1.29185
1.3081
1.32667
1.34706
1.36737
1.38871
1.41046
1.4304
1.44599
1.45652
1.46439
1.46838
1.47308
1.46847
1.45958
1.4537
1.44959
1.44222
1.43249
1.418
1.39491
1.36847
1.34474
1.32218
1.30212
1.28675
1.27686
1.2734
1.24865
1.25606
1.27196
1.29317
1.31722
1.34218
1.36958
1.39896
1.42769
1.45477
1.47791
1.49569
1.51002
1.51945
1.52883
1.52724
1.5191
1.51077
1.50168
1.48755
1.46939
1.44574
1.41414
1.37971
1.34745
1.31766
1.29172
1.27054
1.2559
1.24923
1.22012
1.22918
1.24831
1.27348
1.3019
1.33195
1.36414
1.39922
1.43605
1.46932
1.49971
1.52454
1.54533
1.56084
1.57565
1.5782
1.57214
1.5627
1.54936
1.52912
1.50301
1.47029
1.43097
1.38892
1.3481
1.31204
1.2802
1.25266
1.23275
1.22244
1.19383
1.20409
1.22533
1.25312
1.28419
1.31794
1.35445
1.39368
1.4345
1.47486
1.5115
1.54216
1.56896
1.59067
1.61115
1.61945
1.61689
1.60797
1.59167
1.56639
1.53341
1.49295
1.44708
1.39777
1.3496
1.30746
1.27025
1.23749
1.2119
1.19789
1.17373
1.18452
1.20677
1.23501
1.26694
1.30254
1.34172
1.38372
1.4273
1.47036
1.5113
1.54756
1.5794
1.6069
1.63338
1.64883
1.65107
1.64441
1.62675
1.5978
1.55969
1.51342
1.46227
1.40705
1.35298
1.30515
1.26357
1.22722
1.19729
1.17904
1.16263
1.17348
1.19461
1.2213
1.25238
1.28766
1.32688
1.36922
1.41346
1.4579
1.5008
1.5395
1.57511
1.60789
1.64047
1.66434
1.67268
1.66993
1.65257
1.62191
1.58057
1.53048
1.47533
1.41639
1.35849
1.30606
1.26126
1.22252
1.19056
1.16908
1.16243
1.17142
1.18952
1.21371
1.24222
1.27458
1.31096
1.3506
1.39267
1.43558
1.47772
1.51717
1.55524
1.59259
1.63132
1.6645
1.68053
1.6831
1.66791
1.63717
1.59465
1.54307
1.48547
1.42548
1.36652
1.31236
1.26529
1.22539
1.19232
1.16912
1.17361
1.17949
1.19344
1.21275
1.23725
1.26443
1.29509
1.329
1.36559
1.40383
1.44243
1.48066
1.51979
1.56123
1.60623
1.64942
1.67389
1.68369
1.67206
1.64233
1.59974
1.54854
1.49202
1.43355
1.37655
1.32378
1.2772
1.23747
1.20519
1.18125
1.19492
1.19755
1.20733
1.22094
1.23733
1.2569
1.27901
1.30423
1.33247
1.36345
1.39678
1.4322
1.47124
1.51654
1.56806
1.6219
1.6551
1.67202
1.66507
1.63847
1.59771
1.54875
1.49573
1.44146
1.38911
1.34058
1.29659
1.25831
1.22696
1.20371
1.22852
1.22566
1.22786
1.23326
1.24074
1.25063
1.26299
1.27845
1.29748
1.32038
1.34727
1.37851
1.41656
1.46507
1.52277
1.58685
1.62858
1.65212
1.65052
1.62873
1.59224
1.54675
1.49803
1.45016
1.40415
1.36182
1.32365
1.28939
1.26088
1.23951
0.150501
0.157876
0.158531
0.155157
0.150457
0.147246
0.146888
0.148945
0.152298
0.157024
0.161832
0.16768
0.173533
0.181402
0.187649
0.193938
0.195457
0.196055
0.191337
0.18613
0.179599
0.173254
0.167068
0.161182
0.155442
0.150048
0.145705
0.14345
0.143495
0.145076
0.310905
0.323755
0.327483
0.32494
0.319339
0.313409
0.309312
0.308249
0.309526
0.313187
0.318483
0.326397
0.336337
0.350571
0.364413
0.376511
0.380717
0.378581
0.367954
0.355831
0.342989
0.33203
0.323384
0.317259
0.313277
0.311043
0.31003
0.310187
0.310094
0.310944
0.383315
0.397989
0.402229
0.398693
0.390801
0.382773
0.377176
0.374974
0.375302
0.378075
0.382816
0.390253
0.400144
0.414355
0.428736
0.441075
0.445983
0.443991
0.433334
0.42061
0.407459
0.396448
0.388282
0.383277
0.380917
0.38052
0.381143
0.382454
0.383056
0.383976
0.432985
0.447447
0.451003
0.446239
0.436361
0.426575
0.419713
0.416568
0.416156
0.4181
0.422046
0.428468
0.437401
0.450298
0.463817
0.475123
0.479913
0.478346
0.468635
0.456606
0.444363
0.434262
0.42719
0.423612
0.422967
0.424472
0.427179
0.430299
0.431943
0.432745
0.474356
0.487596
0.489818
0.483651
0.472171
0.460967
0.452967
0.448901
0.447744
0.448856
0.451932
0.457245
0.465011
0.476389
0.488849
0.499011
0.503491
0.502429
0.493937
0.482991
0.47195
0.462985
0.457103
0.45491
0.455817
0.459184
0.464026
0.469007
0.471774
0.472641
0.513472
0.525055
0.525628
0.517895
0.504883
0.492291
0.483119
0.478028
0.476021
0.476263
0.478406
0.482593
0.489163
0.499057
0.510509
0.519663
0.523864
0.523325
0.516168
0.506473
0.496764
0.489032
0.48438
0.483476
0.485813
0.490988
0.497947
0.504839
0.50892
0.510234
0.553736
0.563531
0.562467
0.553029
0.538374
0.524193
0.513613
0.507275
0.504205
0.503447
0.504508
0.507492
0.512812
0.521236
0.531681
0.539926
0.543898
0.543915
0.538246
0.530004
0.521823
0.515519
0.512277
0.512675
0.516494
0.52351
0.53259
0.54147
0.54704
0.549166
0.597491
0.605621
0.602986
0.591726
0.575289
0.559219
0.546865
0.538953
0.534501
0.532455
0.532187
0.533773
0.537709
0.544566
0.55389
0.561194
0.564925
0.565568
0.561608
0.55513
0.548818
0.544346
0.542835
0.544761
0.550282
0.559279
0.570505
0.581365
0.58859
0.591825
0.646454
0.653186
0.64906
0.635919
0.617496
0.599243
0.584773
0.574903
0.568642
0.564871
0.56296
0.562846
0.565158
0.570242
0.578212
0.584391
0.587775
0.589137
0.587153
0.58285
0.578908
0.576815
0.577499
0.581415
0.588979
0.600127
0.613565
0.626414
0.63534
0.639867
0.701779
0.70742
0.70192
0.686954
0.666451
0.645831
0.628928
0.616676
0.608121
0.602122
0.598093
0.595961
0.596334
0.599352
0.60565
0.610371
0.613169
0.615347
0.615582
0.613946
0.612994
0.613929
0.617384
0.62392
0.633967
0.647484
0.663137
0.677898
0.688474
0.694347
0.763977
0.768827
0.762136
0.74554
0.723069
0.700089
0.680557
0.665546
0.65422
0.645485
0.638838
0.634228
0.632378
0.633009
0.637267
0.64006
0.641861
0.644914
0.647553
0.64909
0.651762
0.656369
0.663364
0.673171
0.686142
0.702195
0.719969
0.736469
0.748543
0.755712
0.832789
0.837135
0.829521
0.811678
0.787611
0.762526
0.740389
0.722393
0.707923
0.696001
0.686292
0.678747
0.674339
0.672367
0.674227
0.674484
0.674645
0.678501
0.683713
0.688779
0.695655
0.704639
0.715874
0.729525
0.745757
0.764382
0.784055
0.80201
0.815344
0.823682
0.907088
0.911225
0.903064
0.884548
0.859523
0.832889
0.808457
0.787518
0.769744
0.754362
0.741276
0.730476
0.72324
0.718495
0.717759
0.714755
0.71233
0.716784
0.724561
0.733369
0.744897
0.7588
0.774781
0.792636
0.812257
0.833285
0.854481
0.873513
0.887805
0.897134
0.984893
0.989152
0.980929
0.962493
0.937386
0.910046
0.883966
0.860474
0.839565
0.820743
0.804215
0.790066
0.779946
0.772337
0.769014
0.761873
0.75575
0.760408
0.77051
0.783002
0.799351
0.818406
0.839305
0.861388
0.884211
0.90724
0.929444
0.949082
0.963998
0.974127
1.06344
1.06822
1.06054
1.0431
1.01899
0.992029
0.965274
0.940018
0.916538
0.894677
0.874983
0.857719
0.844951
0.834649
0.828802
0.816602
0.805651
0.809912
0.821853
0.837598
0.858509
0.882514
0.908052
0.933944
0.959416
0.983814
1.00638
1.02606
1.04122
1.05194
1.13929
1.14506
1.13866
1.12328
1.10144
1.07617
1.05002
1.02414
0.99907
0.974989
0.95281
0.933066
0.918213
0.905634
0.897434
0.879243
0.862514
0.865648
0.878694
0.896863
0.921554
0.949771
0.979143
1.00795
1.03513
1.06001
1.08212
1.10117
1.11612
1.12718
1.20862
1.21591
1.21165
1.19954
1.18137
1.15931
1.13523
1.11019
1.0849
1.05983
1.03624
1.01503
0.998963
0.984716
0.974435
0.949386
0.926364
0.927607
0.940849
0.960302
0.987466
1.01855
1.05044
1.0808
1.10839
1.13258
1.15325
1.17081
1.18496
1.19606
1.26761
1.27688
1.2758
1.26825
1.25525
1.23799
1.21765
1.19513
1.17124
1.14671
1.12317
1.10178
1.08557
1.07034
1.05831
1.02576
0.996565
0.995211
1.00777
1.02716
1.05507
1.08717
1.1198
1.14994
1.17631
1.1984
1.21644
1.23148
1.24408
1.25482
1.31305
1.32448
1.32788
1.32614
1.31978
1.30888
1.29393
1.27568
1.25498
1.23272
1.21088
1.19074
1.17548
1.15992
1.14654
1.10627
1.07169
1.06718
1.07839
1.09633
1.12309
1.15404
1.18525
1.21318
1.23651
1.2549
1.26896
1.28031
1.29045
1.30029
1.34305
1.35648
1.36542
1.37087
1.37229
1.36906
1.36097
1.34864
1.33285
1.31462
1.29616
1.27869
1.26534
1.24998
1.23568
1.18818
1.14941
1.1416
1.15107
1.16632
1.19011
1.21769
1.24522
1.26891
1.28738
1.30047
1.30917
1.3156
1.32227
1.33057
1.35779
1.37276
1.38728
1.40073
1.41106
1.41635
1.41614
1.41107
1.40176
1.38911
1.3755
1.36188
1.35118
1.33646
1.3218
1.26838
1.22679
1.21604
1.22361
1.23527
1.25458
1.27687
1.29865
1.31624
1.32828
1.33471
1.33685
1.33728
1.33947
1.34557
1.35832
1.37405
1.39442
1.41576
1.43485
1.44905
1.45742
1.46035
1.45891
1.45299
1.44532
1.43638
1.42877
1.41514
1.40087
1.34364
1.30078
1.2878
1.29356
1.30112
1.31487
1.33043
1.3449
1.35497
1.35938
1.35832
1.35315
1.3468
1.34371
1.34752
1.34866
1.36512
1.38881
1.41653
1.44403
1.46628
1.48293
1.49462
1.50215
1.50346
1.50229
1.4984
1.4941
1.48209
1.46931
1.41105
1.36875
1.3545
1.35862
1.36185
1.3694
1.37737
1.3837
1.38548
1.38141
1.37223
1.35961
1.34649
1.33862
1.33862
1.3315
1.34871
1.37594
1.408
1.43957
1.46806
1.49188
1.51425