/*--------------------------------*- C++ -*----------------------------------*\
| =========                 |                                                 |
| \\      /  F ield         | OpenFOAM: The Open Source CFD Toolbox           |
|  \\    /   O peration     | Version:  5.0                                   |
|   \\  /    A nd           | Web:      www.OpenFOAM.org                      |
|    \\/     M anipulation  |                                                 |
\*---------------------------------------------------------------------------*/
FoamFile
{
    version     2.0;
    format      ascii;
    class       volScalarField;
    location    "100/air";
    object      nut;
}
// * * * * * * * * * * * * * * * * * * * * * * * * * * * * * * * * * * * * * //

dimensions      [0 2 -1 0 0 0 0];

internalField   nonuniform List<scalar> 
243000
(
0.000101957
0.000104091
0.000103753
9.99876e-05
9.41745e-05
8.89085e-05
8.66014e-05
8.84954e-05
9.16147e-05
9.47614e-05
9.74878e-05
0.000100007
0.000102275
0.000104583
0.000106454
0.000108288
0.000109265
0.000109076
0.000107543
0.000106221
0.000104705
0.000103221
0.000101673
0.000100042
9.82524e-05
9.65261e-05
9.55998e-05
9.61574e-05
9.84799e-05
0.000102302
0.000497852
0.00051363
0.000527152
0.000524922
0.000511387
0.000500744
0.000507489
0.000531503
0.000559543
0.000587385
0.000612595
0.000636478
0.000657292
0.000677136
0.000692242
0.000704888
0.000709938
0.000704613
0.000686801
0.000667964
0.000646042
0.00062288
0.000598556
0.000574052
0.000549332
0.00052534
0.000504935
0.000490738
0.000484809
0.000485174
0.000545981
0.000559729
0.000574944
0.000575578
0.000565026
0.000557983
0.000568819
0.000593634
0.000621201
0.000648349
0.000672975
0.000696191
0.000716781
0.000736774
0.000752138
0.000764789
0.000769999
0.000765107
0.000747389
0.000728331
0.000706249
0.000682969
0.000658491
0.000633772
0.000608929
0.000584761
0.000563801
0.000548604
0.000539473
0.000533632
0.000577167
0.000587022
0.000603486
0.000607842
0.000602063
0.000599968
0.000613405
0.000637952
0.000664333
0.000690194
0.000713673
0.000735919
0.00075599
0.000775709
0.000790913
0.000803118
0.000807947
0.000803622
0.000786517
0.000767897
0.000746163
0.000723192
0.000699176
0.00067485
0.000650484
0.000626863
0.000606188
0.000590275
0.000577561
0.00056462
0.000603229
0.00060957
0.000625661
0.000632659
0.000631759
0.000634681
0.000649653
0.000673554
0.000698737
0.000723416
0.000746022
0.000767791
0.000787677
0.000807434
0.000822672
0.000834528
0.000838778
0.000834937
0.000818365
0.000800111
0.000778438
0.00075547
0.000731588
0.000707594
0.000683685
0.000660748
0.000640747
0.000624228
0.000608174
0.00058896
0.000630298
0.000637313
0.000649131
0.000655766
0.000659017
0.00066607
0.000681933
0.000705211
0.000729548
0.000753518
0.000775932
0.000797974
0.000818277
0.00083868
0.000854426
0.000866324
0.000870057
0.00086654
0.000850119
0.000831838
0.000809631
0.000786017
0.00076161
0.000737354
0.000713603
0.000691199
0.000671943
0.0006548
0.000636023
0.000612627
0.000665221
0.000674804
0.000678038
0.000681137
0.000686504
0.000696605
0.000713042
0.000735978
0.000759904
0.000783937
0.000806898
0.000829854
0.00085112
0.000872739
0.000889494
0.000901923
0.000905398
0.00090212
0.000885483
0.000866735
0.000843425
0.000818541
0.000792905
0.000767696
0.000743528
0.000721325
0.000702624
0.000685031
0.00066446
0.000640779
0.000705823
0.000716879
0.000715686
0.000711416
0.000716423
0.000728459
0.000745281
0.000768126
0.000792133
0.00081682
0.00084083
0.000865033
0.000887517
0.000910621
0.000928724
0.000942111
0.000945712
0.000942779
0.000925788
0.000906334
0.000881666
0.000855221
0.000827908
0.000801242
0.000776045
0.000753629
0.000735355
0.000717579
0.000696456
0.0006779
0.000751271
0.000762529
0.000758699
0.000748417
0.000750672
0.000763594
0.000780565
0.000803422
0.000827779
0.000853294
0.000878409
0.000903885
0.000927436
0.00095192
0.000971428
0.000986006
0.000990127
0.000987797
0.000970745
0.000950626
0.000924751
0.000896944
0.000868001
0.000839801
0.000813392
0.000790515
0.00077246
0.000754979
0.000734817
0.000720981
0.000806237
0.00081575
0.000810334
0.000793467
0.000791133
0.000803499
0.000820286
0.000843032
0.000867553
0.000893604
0.000919447
0.000945892
0.000970122
0.00099553
0.00101623
0.00103207
0.00103697
0.00103553
0.00101914
0.000998697
0.00097213
0.000943595
0.000913608
0.000884319
0.000856978
0.000833781
0.000815968
0.00079936
0.000781652
0.000771824
0.000868086
0.000876698
0.000868824
0.000846918
0.000838992
0.000849173
0.000865178
0.00088733
0.000911394
0.000937326
0.000963232
0.000990078
0.00101452
0.00104027
0.00106171
0.00107874
0.00108458
0.00108435
0.00106939
0.00104927
0.00102281
0.000994404
0.00096437
0.000934882
0.00090735
0.000884284
0.000867024
0.00085202
0.000837863
0.000832075
0.000936809
0.000944382
0.000933992
0.000908087
0.000894509
0.000900755
0.000915157
0.000935934
0.00095863
0.000983567
0.00100877
0.00103532
0.0010595
0.00108498
0.00110669
0.00112473
0.00113159
0.00113282
0.00111988
0.00110091
0.00107545
0.0010481
0.00101919
0.000990654
0.000963999
0.000941837
0.000925725
0.000913081
0.000903061
0.000900921
0.0010109
0.00101687
0.00100417
0.000975356
0.000956659
0.000957686
0.000969252
0.00098776
0.00100816
0.00103118
0.0010549
0.0010805
0.00110391
0.00112865
0.00115019
0.00116903
0.00117698
0.00117975
0.00116925
0.00115221
0.00112856
0.00110316
0.0010764
0.00105003
0.00102544
0.00100511
0.000990904
0.000981349
0.000975759
0.000976693
0.00108783
0.0010916
0.00107684
0.00104617
0.00102317
0.00101866
0.00102605
0.00104108
0.0010584
0.00107873
0.00110034
0.00112441
0.0011466
0.00117027
0.00119131
0.00121078
0.00121985
0.00122423
0.00121631
0.00120185
0.00118063
0.00115789
0.00113409
0.00111087
0.00108935
0.00107184
0.00106029
0.00105432
0.00105309
0.00105659
0.00116451
0.00116567
0.00114914
0.0011175
0.00109117
0.00108138
0.0010836
0.00109402
0.00110741
0.0011245
0.00114355
0.00116568
0.00118631
0.00120874
0.00122908
0.00124906
0.00125928
0.00126534
0.00126007
0.00124849
0.00123011
0.00121054
0.00119025
0.00117084
0.00115317
0.00113926
0.00113096
0.00112885
0.00113131
0.00113707
0.00123785
0.00123628
0.00121827
0.0011863
0.00115754
0.00114284
0.0011394
0.00114428
0.00115297
0.00116641
0.00118271
0.00120274
0.00122166
0.0012428
0.00126231
0.00128273
0.0012941
0.0013019
0.0012993
0.00129068
0.00127536
0.00125921
0.00124276
0.00122756
0.00121425
0.00120451
0.00119995
0.00120146
0.00120695
0.00121458
0.00130503
0.00130092
0.00128155
0.00124953
0.0012189
0.00119955
0.00119018
0.00118886
0.00119249
0.00120207
0.00121578
0.00123384
0.00125112
0.00127103
0.00128972
0.00131047
0.00132288
0.00133234
0.00133229
0.00132646
0.00131426
0.00130153
0.00128909
0.00127835
0.0012698
0.00126468
0.00126424
0.00126899
0.00127699
0.00128598
0.0013635
0.00135671
0.00133581
0.00130358
0.0012713
0.00124744
0.00123193
0.00122445
0.0012232
0.00122933
0.00124089
0.00125733
0.00127328
0.00129207
0.00131001
0.00133092
0.00134425
0.00135511
0.00135719
0.0013537
0.00134429
0.00133472
0.00132616
0.00131994
0.00131637
0.00131642
0.00132031
0.00132831
0.00133858
0.0013486
0.00140956
0.00139978
0.00137702
0.00134433
0.00131037
0.00128216
0.00126083
0.00124805
0.00124306
0.00124662
0.00125664
0.00127185
0.00128672
0.00130447
0.00132177
0.00134285
0.00135705
0.00136916
0.0013727
0.00137084
0.00136343
0.00135632
0.001351
0.00134877
0.00135002
0.00135525
0.0013638
0.00137522
0.00138789
0.00139892
0.00143811
0.00142536
0.00140067
0.00136728
0.00133181
0.00130013
0.00127463
0.00125831
0.00125087
0.00125298
0.0012621
0.00127632
0.00129028
0.00130705
0.00132358
0.00134454
0.0013596
0.00137307
0.00137777
0.00137704
0.00137105
0.00136537
0.00136201
0.00136265
0.00136766
0.00137737
0.00139006
0.00140474
0.00141982
0.00143166
0.00144504
0.00143029
0.00140462
0.00137131
0.00133513
0.00130173
0.00127404
0.00125549
0.00124815
0.00125125
0.00126096
0.00127493
0.0012884
0.00130351
0.00131812
0.00133579
0.00135124
0.0013657
0.00137115
0.00137101
0.00136593
0.00136116
0.00135904
0.00136112
0.00136824
0.00138055
0.00139603
0.00141302
0.00143001
0.00144245
0.00142826
0.00141234
0.00138706
0.00135478
0.0013194
0.0012901
0.00126579
0.00125001
0.00124434
0.00124855
0.00125881
0.0012727
0.00128581
0.00129976
0.00131303
0.00132895
0.00134181
0.00135353
0.00135711
0.00135536
0.00134925
0.00134358
0.00134186
0.00134445
0.00135231
0.00136541
0.00138192
0.00139955
0.00141695
0.00142918
0.00138871
0.00137318
0.0013543
0.00132966
0.0013009
0.00127551
0.00125479
0.00124217
0.00123895
0.00124423
0.00125519
0.00126915
0.00128217
0.00129541
0.00130774
0.0013218
0.00133251
0.00134188
0.0013438
0.00134076
0.00133382
0.00132727
0.00132371
0.00132413
0.00132927
0.00133916
0.00135199
0.00136559
0.00138171
0.00139257
0.00134162
0.00133203
0.0013196
0.00130174
0.00127918
0.00125801
0.00124123
0.00123215
0.00123147
0.00123808
0.00124987
0.00126415
0.00127739
0.0012904
0.00130223
0.00131462
0.00132352
0.00133073
0.00133094
0.00132654
0.00131846
0.00131044
0.00130495
0.00130317
0.00130543
0.00131195
0.001321
0.00133068
0.00134088
0.00134643
0.00129455
0.0012898
0.00128324
0.00127153
0.00125471
0.00123806
0.00122545
0.00122007
0.00122192
0.0012302
0.00124315
0.00125817
0.00127225
0.00128566
0.00129768
0.00130904
0.00131646
0.00132145
0.00131968
0.0013132
0.00130327
0.00129321
0.00128545
0.00128122
0.00128068
0.00128363
0.00128886
0.00129445
0.0012992
0.00130003
0.00124777
0.00124712
0.00124592
0.00123964
0.00122835
0.00121652
0.00120835
0.00120677
0.0012116
0.00122224
0.00123719
0.00125386
0.00126961
0.00128487
0.00129843
0.00131006
0.00131651
0.00131933
0.0013147
0.00130489
0.00129146
0.00127799
0.00126699
0.00125948
0.00125566
0.00125492
0.00125613
0.0012574
0.00125702
0.00125386
0.00120362
0.00120634
0.00120967
0.00120867
0.0012031
0.00119685
0.00119411
0.00119744
0.0012067
0.00122215
0.00124079
0.00126067
0.0012798
0.00129846
0.00131564
0.00132982
0.0013367
0.00133798
0.00133012
0.00131517
0.00129591
0.00127618
0.00125882
0.00124548
0.00123601
0.00123
0.00122625
0.00122276
0.00121709
0.00121002
0.00117824
0.00118418
0.00119182
0.00119635
0.0011982
0.00120055
0.00120705
0.00121923
0.00123691
0.00125851
0.00128173
0.00130488
0.00132683
0.00134823
0.00136859
0.00138801
0.00139818
0.00140045
0.00139183
0.00137309
0.00135077
0.00132481
0.00129827
0.00127446
0.00125399
0.00123722
0.00122355
0.00121103
0.00119823
0.00118468
0.00127126
0.00127539
0.00128222
0.00129042
0.0012998
0.00131166
0.00132799
0.00134699
0.00136692
0.0013862
0.00140441
0.00142167
0.00143849
0.00145651
0.00147574
0.00149268
0.00150469
0.00151255
0.00151547
0.0015121
0.00149996
0.00148211
0.00145951
0.00143367
0.00140588
0.00137785
0.00135134
0.00132596
0.00130185
0.00127889
0.00153364
0.00152731
0.00151947
0.00151116
0.0015033
0.00149643
0.00149104
0.00148727
0.00148515
0.0014846
0.00148577
0.00148912
0.00149496
0.00150418
0.00151605
0.00152998
0.00154242
0.00155272
0.00156095
0.00156587
0.00156763
0.00156719
0.00156512
0.00156219
0.00155889
0.00155553
0.00155218
0.00154862
0.00154456
0.00153909
0.000156097
0.000159685
0.000154631
0.000144762
0.000134172
0.000125819
0.000122785
0.000124072
0.000126628
0.000129662
0.000132594
0.000135678
0.000138675
0.000142128
0.0001448
0.000147349
0.00014862
0.000148345
0.000146455
0.000144617
0.000142168
0.000140154
0.000138209
0.000136322
0.000134397
0.000132826
0.000132606
0.000135517
0.000142556
0.000151716
0.00121421
0.00128401
0.00122782
0.00112261
0.000951642
0.000846525
0.000829117
0.000860198
0.000904502
0.00095898
0.00101393
0.00107792
0.00112047
0.00116186
0.00119611
0.00121875
0.00123101
0.00122335
0.00119546
0.00116027
0.00111591
0.00106058
0.000999344
0.000947335
0.000901692
0.000870513
0.000863409
0.000909274
0.00102418
0.00116765
0.00216355
0.00224159
0.00216917
0.0020401
0.00182654
0.00168925
0.00168043
0.00174643
0.00183097
0.00192804
0.00202479
0.00211206
0.00218353
0.0022585
0.00231971
0.00235771
0.0023789
0.00236859
0.0023213
0.00225925
0.00217885
0.00209347
0.00199466
0.00189628
0.00180577
0.0017345
0.00170674
0.00176403
0.00190104
0.00206307
0.00282533
0.00289293
0.00285055
0.00274424
0.00256619
0.00246187
0.00247766
0.00255601
0.00265219
0.00276336
0.00286366
0.00295976
0.00304833
0.00314163
0.00321815
0.00326598
0.00329083
0.00327915
0.0032226
0.00314574
0.00304607
0.00294258
0.00283632
0.00272204
0.00261485
0.00252815
0.0024722
0.00250819
0.00260826
0.00272479
0.00331472
0.00336636
0.00336382
0.00330115
0.00318452
0.00312247
0.00315237
0.0032345
0.00333213
0.00343762
0.00353543
0.00363727
0.00373462
0.00383535
0.00391769
0.00396958
0.00399211
0.003979
0.00391887
0.00383412
0.00372497
0.00361154
0.00350014
0.00339156
0.0032792
0.0031828
0.0031187
0.00312813
0.00318126
0.00323395
0.00371675
0.00375188
0.00378308
0.00376229
0.00370642
0.00368202
0.00372046
0.00380131
0.00389511
0.00399215
0.00409208
0.00419834
0.00430053
0.00440334
0.00448662
0.00453622
0.00455464
0.00453818
0.00447549
0.00438539
0.00427033
0.00415038
0.00403454
0.00392681
0.00382376
0.00372811
0.00366344
0.00364862
0.00365797
0.0036561
0.0040836
0.00410887
0.00415671
0.00416643
0.00415432
0.004157
0.0042
0.00428231
0.00437163
0.00446905
0.00457285
0.00468271
0.00478744
0.00488991
0.00497201
0.00501778
0.00503156
0.00501083
0.00494617
0.0048522
0.00473293
0.00460794
0.00448799
0.00437798
0.00427813
0.00418669
0.00412657
0.0040955
0.00407229
0.00403581
0.00444662
0.00446693
0.00451641
0.00454142
0.00455454
0.00457377
0.00461747
0.00470064
0.00479231
0.0048944
0.00500283
0.00511569
0.00522143
0.00532116
0.0054
0.00544097
0.00545034
0.00542628
0.00536028
0.00526397
0.00514202
0.00501319
0.00488898
0.00477488
0.00467323
0.00458443
0.00453279
0.00449351
0.00445669
0.00440564
0.00481435
0.00483159
0.00487628
0.00490343
0.00492744
0.00495488
0.00499915
0.0050814
0.00517794
0.00528522
0.00539755
0.00551186
0.00561616
0.00571031
0.00578325
0.00581814
0.00582328
0.00579767
0.00573173
0.00563526
0.00551289
0.00538252
0.00525593
0.00513904
0.00503547
0.00495246
0.00490565
0.00486683
0.00482896
0.00478077
0.00517842
0.00519566
0.00523401
0.00525895
0.0052864
0.00531678
0.00536298
0.00544065
0.00554031
0.00565052
0.00576447
0.00587739
0.00597697
0.00606162
0.00612564
0.00615445
0.00615653
0.00613251
0.00606918
0.00597555
0.00585537
0.00572662
0.00560077
0.00548403
0.00538065
0.00530696
0.00526304
0.00522736
0.00519351
0.00515701
0.00554027
0.00555569
0.00558984
0.00561201
0.00563786
0.00566826
0.00571607
0.00578755
0.00588468
0.00599379
0.00610563
0.00621332
0.00630414
0.00637573
0.00642841
0.00645265
0.0064525
0.00643396
0.00637718
0.00629106
0.00617752
0.00605397
0.00593245
0.00581963
0.00572041
0.00565583
0.0056135
0.00558158
0.00555413
0.00552971
0.00590174
0.00591334
0.00594323
0.00596289
0.00598613
0.00601393
0.0060589
0.00612627
0.00621332
0.00631466
0.00641986
0.00651836
0.00659652
0.00665209
0.00669238
0.00671172
0.00671062
0.00669877
0.00665364
0.00658019
0.00647877
0.00636657
0.00625517
0.00615006
0.0060611
0.00600372
0.00596374
0.00593623
0.00591503
0.00589911
0.00626129
0.00626694
0.00629072
0.00630749
0.00632776
0.00635187
0.00639115
0.0064501
0.00652625
0.00661306
0.00670366
0.00678946
0.00685149
0.00688998
0.00691569
0.00692837
0.00692668
0.00692235
0.00689349
0.00683727
0.00675301
0.00665862
0.00656465
0.00647571
0.00640167
0.00634812
0.0063122
0.00628962
0.00627425
0.00626384
0.00661518
0.00661232
0.00662651
0.00663869
0.00665522
0.00667472
0.00670582
0.00675251
0.00681356
0.00688369
0.0069554
0.00702193
0.00706601
0.00708552
0.0070946
0.00709931
0.00709706
0.00710106
0.00709089
0.00705528
0.00699331
0.00692285
0.00685168
0.00678435
0.00672687
0.00668362
0.00665424
0.00663694
0.00662727
0.0066206
0.00694881
0.00693674
0.00694075
0.00694793
0.00695973
0.00697278
0.00699318
0.00702447
0.00706668
0.0071165
0.00716741
0.00721096
0.00723435
0.00723388
0.00722548
0.00722237
0.00722058
0.00723401
0.00724236
0.00722959
0.00719337
0.00714824
0.00710228
0.0070588
0.00702117
0.00699247
0.00697309
0.00696288
0.00695953
0.00695761
0.0072387
0.00721842
0.00721438
0.00721742
0.00722459
0.00723014
0.00723791
0.00725126
0.00727193
0.00729852
0.00732668
0.00734795
0.00734993
0.00733054
0.00730641
0.00729641
0.00729592
0.00732073
0.00734742
0.00735668
0.00734506
0.00732552
0.00730491
0.00728539
0.00726825
0.00725578
0.00724785
0.00724524
0.00724772
0.00725081
0.00746355
0.00743822
0.00742865
0.00742879
0.00743048
0.00742666
0.00741874
0.00741154
0.00740928
0.0074132
0.00742063
0.00742312
0.00740775
0.00737338
0.00733762
0.00732178
0.00732278
0.00735836
0.00740129
0.0074295
0.0074388
0.00744204
0.00744472
0.00744783
0.00745154
0.0074561
0.00745972
0.00746427
0.00747122
0.0074776
0.00760472
0.00757682
0.00756123
0.00755691
0.00755061
0.00753489
0.00750802
0.00747991
0.00745826
0.00744485
0.007438
0.00743045
0.00740683
0.00736757
0.00732619
0.00730511
0.00730498
0.00734652
0.00739874
0.00743803
0.00746065
0.00748064
0.00750217
0.00752425
0.00754819
0.00757285
0.0075905
0.00760224
0.00761209
0.00762079
0.00763816
0.007605
0.00758247
0.00757386
0.00755616
0.00752785
0.00747917
0.00743447
0.00740554
0.00738772
0.00737772
0.00736992
0.00734933
0.00731772
0.00728403
0.00726336
0.00726079
0.00730069
0.00734946
0.00738391
0.00740436
0.00742826
0.00745727
0.00748802
0.00752825
0.00757735
0.00761315
0.00763361
0.00764823
0.0076584
0.00753425
0.00748899
0.00746396
0.00745945
0.00745938
0.00742569
0.00735641
0.00728253
0.00724768
0.0072388
0.00723605
0.00723906
0.00723291
0.00722077
0.0072061
0.00720044
0.00720274
0.00723852
0.00727586
0.00729424
0.00729821
0.00730517
0.00731559
0.00734474
0.00740182
0.00746122
0.00750186
0.00752776
0.00754634
0.0075544
0.00725718
0.0072027
0.00718646
0.00718656
0.00718245
0.00715272
0.00709475
0.00703246
0.0069991
0.00699104
0.00700635
0.00703122
0.00704952
0.00706709
0.00708001
0.00710177
0.00711465
0.00715463
0.00717913
0.00717792
0.00715763
0.00713751
0.00712729
0.00714057
0.00717398
0.00720559
0.00722876
0.00724544
0.00727268
0.00728438
0.00684982
0.00680752
0.0067954
0.00679397
0.00678623
0.00674076
0.00669385
0.00665373
0.00663877
0.00666284
0.00670081
0.00675872
0.00680957
0.00685919
0.00690074
0.00694799
0.00697655
0.00702408
0.00703691
0.00701491
0.00696665
0.0069167
0.00687442
0.00685665
0.00685584
0.00686302
0.00687803
0.00687784
0.0068806
0.00687976
0.00635147
0.00631036
0.00628856
0.00627553
0.00626851
0.00625156
0.00622662
0.00622352
0.00625134
0.00630428
0.00637613
0.00646802
0.00655628
0.00663909
0.00670903
0.00677598
0.00681417
0.00685566
0.00684946
0.00679822
0.00671246
0.00662795
0.00655406
0.00649664
0.00646034
0.00644278
0.00643276
0.0064183
0.00640033
0.00638821
0.00576717
0.00572232
0.00571719
0.00572699
0.00574747
0.0057652
0.0057834
0.00582124
0.00588286
0.00596694
0.00607587
0.00620145
0.00632063
0.00643382
0.00653025
0.00661361
0.00666012
0.0066939
0.00666748
0.0065878
0.00646857
0.00634205
0.00622972
0.00612964
0.00604822
0.00598273
0.00592698
0.00587881
0.00583937
0.00581493
0.00523358
0.00521625
0.00523852
0.00527386
0.00532282
0.00537159
0.00542468
0.0054908
0.00558151
0.00569636
0.00583386
0.00598421
0.00612772
0.00626558
0.00638387
0.00648285
0.00653799
0.00656956
0.00652872
0.00642658
0.00628059
0.00612206
0.00596898
0.00582978
0.005708
0.005601
0.00550454
0.00541717
0.0053387
0.00528506
0.00487891
0.00488856
0.00493323
0.00498874
0.00505211
0.00511856
0.00518822
0.00527107
0.00537998
0.00551567
0.00567369
0.00583821
0.00599686
0.0061528
0.00629018
0.00640585
0.00647149
0.0065074
0.00646187
0.00634922
0.00618606
0.00600171
0.00581721
0.00564754
0.00549693
0.00535969
0.00523472
0.00511731
0.00500838
0.00492826
0.0047343
0.00476413
0.00482237
0.00488594
0.004953
0.00502152
0.00509342
0.00518489
0.00530485
0.00545144
0.00561612
0.00578599
0.00595444
0.00612508
0.00628159
0.0064168
0.00649531
0.00654191
0.00649917
0.0063772
0.00620352
0.00600905
0.00580971
0.00561896
0.00544263
0.00528303
0.00514139
0.00500733
0.004879
0.0047779
0.00479685
0.00484324
0.00490689
0.00497027
0.00503525
0.0051038
0.0051821
0.00527971
0.00540295
0.00555013
0.00571449
0.00588545
0.00606205
0.00624851
0.00642961
0.00659161
0.00668945
0.00675138
0.00672239
0.00660499
0.00642822
0.00622225
0.00600488
0.00578858
0.00558804
0.0054109
0.00524957
0.00509983
0.0049573
0.00483463
0.00520177
0.00525986
0.00532742
0.00539275
0.00545876
0.00552829
0.0056054
0.00569919
0.00581843
0.0059595
0.00611465
0.00629419
0.00648529
0.00669654
0.00692166
0.00712963
0.00726331
0.0073457
0.00733437
0.00721938
0.00703157
0.00680612
0.0065674
0.0063329
0.00611475
0.00591588
0.00573259
0.00556013
0.00539425
0.0052418
0.00657147
0.00663284
0.00669954
0.00676865
0.00684066
0.00691547
0.00699632
0.00708382
0.00718672
0.00730803
0.00744318
0.00760164
0.00778515
0.0080141
0.00827422
0.00853141
0.00871738
0.00885021
0.00888595
0.00882295
0.00867472
0.00847401
0.0082431
0.00800058
0.00775694
0.00751839
0.00728721
0.00706288
0.00684408
0.00663779
0.000190389
0.000190759
0.00018465
0.000174964
0.000164275
0.000155915
0.000151877
0.000151178
0.000151593
0.000152786
0.000154115
0.000155816
0.00015757
0.000160182
0.000162444
0.000164951
0.000166199
0.000166616
0.000165627
0.000164933
0.000163964
0.000163161
0.000162609
0.00016212
0.000161725
0.000162065
0.000163962
0.000168656
0.000177252
0.000187497
0.00164336
0.0016805
0.00163155
0.00155264
0.00147957
0.0014166
0.00137124
0.00135185
0.00134533
0.00134851
0.00135677
0.00137372
0.00139624
0.00143236
0.00146732
0.00149417
0.00150856
0.00150518
0.00148079
0.00145378
0.00142349
0.00139866
0.00138251
0.00137611
0.00138094
0.00140204
0.00143502
0.00150044
0.00156679
0.00163361
0.00297975
0.00305604
0.00299692
0.0029047
0.00282552
0.00274997
0.00269612
0.00268398
0.00269076
0.00271117
0.00273775
0.00277831
0.0028276
0.00290366
0.00297524
0.00302871
0.00305822
0.00306091
0.00301826
0.00296695
0.00290401
0.00284467
0.00279521
0.00275915
0.00273789
0.00273894
0.00276228
0.00281729
0.00288089
0.00295039
0.00398901
0.00405625
0.00402069
0.00397718
0.00394343
0.00389415
0.00385907
0.00386468
0.00388981
0.00392853
0.00397473
0.00403786
0.00411331
0.00422527
0.00433245
0.00441288
0.00445568
0.00446568
0.00441037
0.00433821
0.00424559
0.00415137
0.00406564
0.00399481
0.00393805
0.00390221
0.00388842
0.00389199
0.0039052
0.00393436
0.00471947
0.00478592
0.00479921
0.00480145
0.00481228
0.00483326
0.00483991
0.00487155
0.00491856
0.00497428
0.00504193
0.00512614
0.00522605
0.00536903
0.00550776
0.00561373
0.00566703
0.00568173
0.00561618
0.00552453
0.00540422
0.00527466
0.00515288
0.00504626
0.00494988
0.00487138
0.00480568
0.00474849
0.00470153
0.00468036
0.00528951
0.00535916
0.00540989
0.00546057
0.00552363
0.00558905
0.00564142
0.00570797
0.00578465
0.00586797
0.00595035
0.00605572
0.00617972
0.00634946
0.00651438
0.00664388
0.00670298
0.00671811
0.0066418
0.00652991
0.00638271
0.00622784
0.0060702
0.00591495
0.00577511
0.005654
0.00553655
0.00542649
0.00533158
0.00527
0.00577252
0.0058452
0.00591232
0.0059922
0.00608863
0.00619108
0.00628566
0.00638861
0.0065001
0.00661242
0.00672657
0.00685944
0.00700814
0.00720037
0.00738532
0.00753228
0.00759109
0.007603
0.00751543
0.00738236
0.0072054
0.00700938
0.00681058
0.00661396
0.00643615
0.00627724
0.00612088
0.0059764
0.00585179
0.00576648
0.00621763
0.00628915
0.0063573
0.00644697
0.00655834
0.00668462
0.00681445
0.0069504
0.00710093
0.00725031
0.00739974
0.00756304
0.00773766
0.00794966
0.00815101
0.00830852
0.00836408
0.00836661
0.00826546
0.00810949
0.00790166
0.00766595
0.00742486
0.00718827
0.00697877
0.00678786
0.0066075
0.00644642
0.00631121
0.00621802
0.00665718
0.0067233
0.00678374
0.00686932
0.006981
0.00711688
0.00727136
0.00743725
0.00762062
0.00780815
0.00799337
0.0081877
0.00838696
0.00861456
0.00882696
0.0089893
0.00903862
0.00902817
0.0089146
0.00873768
0.00850222
0.00823115
0.00795279
0.00768585
0.00745079
0.00723681
0.00704537
0.00688175
0.00674914
0.00665936
0.00711071
0.00716819
0.00721847
0.00729274
0.00739531
0.00752993
0.00769655
0.00788647
0.0080943
0.0083116
0.00852783
0.00874931
0.00896855
0.00920484
0.00942087
0.00958124
0.00961996
0.00959603
0.00947441
0.00928335
0.00902986
0.00873388
0.00843342
0.00814613
0.00789375
0.00766707
0.00747445
0.00731659
0.00719323
0.00711232
0.0075873
0.00763507
0.0076746
0.00773524
0.00782507
0.00795218
0.00812124
0.00832498
0.00854802
0.0087845
0.00902184
0.0092611
0.00949206
0.00972813
0.00993693
0.0100861
0.0101114
0.0100755
0.00995318
0.00975836
0.0095002
0.00919804
0.00889072
0.00859741
0.00833661
0.00810706
0.00791913
0.00777074
0.00765856
0.00758785
0.00808812
0.00812598
0.00815525
0.00820279
0.00827975
0.00839711
0.00856206
0.00876832
0.00899896
0.00924243
0.00948896
0.00973407
0.00996591
0.0101909
0.0103798
0.0105098
0.0105195
0.0104776
0.0103616
0.0101753
0.00992631
0.00963424
0.00933565
0.00905139
0.00879259
0.00856858
0.00838857
0.00825034
0.00814903
0.00808784
0.00860423
0.00863268
0.00865329
0.00869026
0.0087566
0.00886435
0.00902161
0.00922258
0.00945074
0.00969235
0.00993677
0.0101757
0.0103963
0.0105985
0.0107583
0.0108621
0.0108543
0.0108135
0.0107123
0.0105449
0.0103177
0.0100493
0.00977157
0.00950364
0.00925848
0.0090469
0.00887711
0.00874868
0.00865705
0.008604
0.00911398
0.00913495
0.0091502
0.00918133
0.00924119
0.00934159
0.0094902
0.00968139
0.00990011
0.0101315
0.0103648
0.0105876
0.0107866
0.0109583
0.0110831
0.0111549
0.0111274
0.0110933
0.0110145
0.0108754
0.0106794
0.0104418
0.0101928
0.00994858
0.00972132
0.00952375
0.00936446
0.0092449
0.00916143
0.00911514
0.00959487
0.00960903
0.00962125
0.00965052
0.0097089
0.00980616
0.00994769
0.0101281
0.0103342
0.0105508
0.0107671
0.0109667
0.0111373
0.0112739
0.0113633
0.0113995
0.0113502
0.0113265
0.0112744
0.0111687
0.0110091
0.0108062
0.0105888
0.0103708
0.0101632
0.00997966
0.00982894
0.00971548
0.00963827
0.00959725
0.0100233
0.0100314
0.0100431
0.0100739
0.0101351
0.010233
0.0103703
0.0105415
0.010735
0.0109362
0.011133
0.0113069
0.0114464
0.0115473
0.0116029
0.0116048
0.0115329
0.0115215
0.0114964
0.0114243
0.0113008
0.0111331
0.0109436
0.0107498
0.0105607
0.0103901
0.0102454
0.0101353
0.0100629
0.0100271
0.0103697
0.0103725
0.0103867
0.0104227
0.0104915
0.0105944
0.0107312
0.0108966
0.0110807
0.0112704
0.0114483
0.0115977
0.0117079
0.0117766
0.0118032
0.0117759
0.0116851
0.0116849
0.0116834
0.01164
0.0115471
0.0114091
0.0112404
0.0110635
0.0108889
0.0107275
0.0105847
0.0104745
0.0104054
0.010375
0.0106038
0.0106038
0.0106185
0.0106659
0.0107485
0.0108613
0.0110028
0.0111677
0.0113495
0.0115344
0.0116992
0.0118293
0.011915
0.0119575
0.0119631
0.0119154
0.0118138
0.0118224
0.0118378
0.0118142
0.0117416
0.0116232
0.0114642
0.0112931
0.0111241
0.0109639
0.0108178
0.0107046
0.0106361
0.0106102
0.0106991
0.0106989
0.0107154
0.0107731
0.0108763
0.0110054
0.0111593
0.0113355
0.0115273
0.0117165
0.0118768
0.0119962
0.0120669
0.0120918
0.0120825
0.0120248
0.0119227
0.0119382
0.0119625
0.0119472
0.0118809
0.0117688
0.0116061
0.0114231
0.0112476
0.0110794
0.0109212
0.0108027
0.0107315
0.010706
0.0106398
0.010638
0.0106588
0.0107289
0.0108568
0.0110123
0.0111946
0.011395
0.0116062
0.0118094
0.0119789
0.0120992
0.0121671
0.0121868
0.012173
0.012112
0.0120136
0.012035
0.0120608
0.0120415
0.011966
0.0118395
0.0116563
0.0114491
0.0112536
0.0110657
0.0108835
0.0107561
0.0106815
0.0106463
0.0104147
0.0104244
0.010456
0.010538
0.0106853
0.0108968
0.0111208
0.0113563
0.0115936
0.0118191
0.0120093
0.0121456
0.0122236
0.0122526
0.0122482
0.0121957
0.0121092
0.0121291
0.0121464
0.012108
0.0120036
0.0118413
0.0116223
0.0113777
0.0111518
0.0109122
0.0107045
0.0105673
0.0104774
0.0104279
0.0100485
0.0100642
0.0101337
0.0102637
0.0104544
0.0106883
0.0109569
0.0112459
0.0115127
0.0117682
0.0119862
0.0121482
0.0122489
0.0123021
0.012323
0.0122921
0.0122271
0.0122456
0.0122462
0.0121788
0.0120344
0.0118246
0.0115543
0.011266
0.010983
0.0106966
0.0104458
0.0102575
0.0101355
0.0100698
0.00962333
0.00966048
0.00977155
0.00995645
0.0102016
0.0104715
0.0107628
0.0110818
0.0114087
0.0116871
0.0119366
0.0121305
0.0122634
0.0123535
0.0124139
0.0124174
0.0123842
0.0124055
0.0123875
0.0122871
0.0120972
0.0118327
0.0115114
0.0111709
0.0108143
0.0104828
0.010179
0.0099242
0.00975167
0.00965235
0.00924855
0.0093085
0.00945867
0.00969001
0.0099749
0.0102906
0.0106226
0.0109549
0.0112902
0.0116207
0.0119006
0.0121215
0.0122919
0.0124283
0.0125392
0.0125907
0.0125987
0.0126301
0.0125966
0.0124641
0.0122294
0.0119159
0.0115482
0.0111428
0.0107189
0.0103382
0.00998692
0.0096717
0.0094274
0.00928561
0.00902233
0.00910362
0.00929301
0.00955407
0.00986181
0.0102006
0.0105553
0.0109109
0.0112628
0.0116006
0.0119018
0.0121586
0.0123661
0.0125534
0.012724
0.0128356
0.0128928
0.0129439
0.0129012
0.0127415
0.0124726
0.0121184
0.0117094
0.0112561
0.0107817
0.0103346
0.00992768
0.00956265
0.00925717
0.00906405
0.00903094
0.00913989
0.00935257
0.00962664
0.00994199
0.0102856
0.0106437
0.0110043
0.0113597
0.0116993
0.0120107
0.0122818
0.0125225
0.0127633
0.0130004
0.0131835
0.0132945
0.0133791
0.0133395
0.0131672
0.0128733
0.0124857
0.0120372
0.0115333
0.0110137
0.0105146
0.0100668
0.00966371
0.00932115
0.00908088
0.00935931
0.00948477
0.00970526
0.00998452
0.0102951
0.0106218
0.0109608
0.0113013
0.0116383
0.0119639
0.0122694
0.0125469
0.0128139
0.0131065
0.0134153
0.0136772
0.0138479
0.0139785
0.0139538
0.0137768
0.0134726
0.0130694
0.0125879
0.0120611
0.0115205
0.0109963
0.0105106
0.0100727
0.00969178
0.00941069
0.0101191
0.0102608
0.0104721
0.0107268
0.0110219
0.0113127
0.0116069
0.0119015
0.0121954
0.0124855
0.0127665
0.0130372
0.013321
0.0136591
0.0140406
0.014388
0.0146223
0.0148172
0.0148248
0.0146554
0.0143441
0.0139344
0.0134531
0.0129287
0.0123934
0.0118753
0.0113848
0.0109265
0.0105156
0.0101897
0.0115072
0.0116511
0.0118466
0.0120665
0.0122919
0.0125251
0.012747
0.0129661
0.0131872
0.0134128
0.0136432
0.0138843
0.0141663
0.0145387
0.0149836
0.0154196
0.0157262
0.0159983
0.0160621
0.0159334
0.015641
0.0152486
0.0147976
0.014308
0.0138109
0.0133209
0.0128407
0.0123792
0.0119526
0.0115986
0.0140599
0.0141516
0.0142649
0.014385
0.0145004
0.0146098