/*--------------------------------*- C++ -*----------------------------------*\
| =========                 |                                                 |
| \\      /  F ield         | OpenFOAM: The Open Source CFD Toolbox           |
|  \\    /   O peration     | Version:  5.0                                   |
|   \\  /    A nd           | Web:      www.OpenFOAM.org                      |
|    \\/     M anipulation  |                                                 |
\*---------------------------------------------------------------------------*/
FoamFile
{
    version     2.0;
    format      ascii;
    class       volScalarField;
    location    "50/air";
    object      alphat;
}
// * * * * * * * * * * * * * * * * * * * * * * * * * * * * * * * * * * * * * //

dimensions      [1 -1 -1 0 0 0 0];

internalField   nonuniform List<scalar> 
243000
(
0.000190171
0.000168392
0.000133192
0.000101621
9.77317e-05
0.000108718
0.00011685
0.000123641
0.000130912
0.000136523
0.000140333
0.000143037
0.000144915
0.000146448
0.0001476
0.000148327
0.00014751
0.000146938
0.000146414
0.000145747
0.000144436
0.000142292
0.000138811
0.000133454
0.000128437
0.000122867
0.000114586
0.00010015
0.000128517
0.00016635
0.000851403
0.00079654
0.000657726
0.000504191
0.000525993
0.000605221
0.000671927
0.000732933
0.000787278
0.000829682
0.000863334
0.000890264
0.000911172
0.000927664
0.000939018
0.000943348
0.000936124
0.000924926
0.000909983
0.000891601
0.000868362
0.000839842
0.000804774
0.000762188
0.000711064
0.000655027
0.000587936
0.000504877
0.00059031
0.000759101
0.000911358
0.000855421
0.000696235
0.00055747
0.000591007
0.000669909
0.000735646
0.000793617
0.000846207
0.000889243
0.000923994
0.000952091
0.000974107
0.000991611
0.00100374
0.00100815
0.00100141
0.000989488
0.000973238
0.000953391
0.000928679
0.000898698
0.00086254
0.000819922
0.000771118
0.000716453
0.000649307
0.000574065
0.000632679
0.000812177
0.000947405
0.000896609
0.000725496
0.000613209
0.000643896
0.000711955
0.000770188
0.000824923
0.000877885
0.000922834
0.000959523
0.000989332
0.00101273
0.00103137
0.00104429
0.00104891
0.0010427
0.00103016
0.00101257
0.000991095
0.000964432
0.000932215
0.000893837
0.000849767
0.000802381
0.000752485
0.000692863
0.000629791
0.000675697
0.000846542
0.000973616
0.000929034
0.000770576
0.000667489
0.000687079
0.000740584
0.000790887
0.000844003
0.00089913
0.000946646
0.000985504
0.00101711
0.00104183
0.00106151
0.00107506
0.00107991
0.00107425
0.00106137
0.00104269
0.00101972
0.000991014
0.000956264
0.000915002
0.000868328
0.000819953
0.000774667
0.000725099
0.000678027
0.000720566
0.000876809
0.000997346
0.000959108
0.000821031
0.000718537
0.000724137
0.000763062
0.00080593
0.000860935
0.00091842
0.000968234
0.00100884
0.00104189
0.00106761
0.00108806
0.00110203
0.00110705
0.00110189
0.00108908
0.0010697
0.00104564
0.00101527
0.000978297
0.000934249
0.000884739
0.000832926
0.000790704
0.000751567
0.000721953
0.000766227
0.000908013
0.00102039
0.000988233
0.000869472
0.000766003
0.000758457
0.000784907
0.000822911
0.000880956
0.000939764
0.000990924
0.00103255
0.00106651
0.00109285
0.00111382
0.00112805
0.0011332
0.00112845
0.00111604
0.00109634
0.00107169
0.00104022
0.00100166
0.000955476
0.000904083
0.000851525
0.000808503
0.000776652
0.00076309
0.000812008
0.000939525
0.0010437
0.00101688
0.000914402
0.000811547
0.000792969
0.000809591
0.000844848
0.000906333
0.000964893
0.00101612
0.00105798
0.00109237
0.00111907
0.00114042
0.0011548
0.00116013
0.00115571
0.00114383
0.00112419
0.00109936
0.00106733
0.0010279
0.000980457
0.000928453
0.000876535
0.000831461
0.000804397
0.000803627
0.000867098
0.000971748
0.00106809
0.00104572
0.000956856
0.000858288
0.000830379
0.000839534
0.000877115
0.000937337
0.000994318
0.00104445
0.00108585
0.00112031
0.00114724
0.00116899
0.00118351
0.00118909
0.00118499
0.00117358
0.00115435
0.00112968
0.00109751
0.00105787
0.00101002
0.000958508
0.00090857
0.000863469
0.000839835
0.000847629
0.00091741
0.00100437
0.00109432
0.00107555
0.000998369
0.000915977
0.000872384
0.00087617
0.000916348
0.000973638
0.00102812
0.00107628
0.00111672
0.00115097
0.00117812
0.00120041
0.00121512
0.00122113
0.00121734
0.00120646
0.00118754
0.00116346
0.00113155
0.00109225
0.00104471
0.000994346
0.000947083
0.000907658
0.0008877
0.000906533
0.000967136
0.00103817
0.00112332
0.00110781
0.00104042
0.000969846
0.00092494
0.000924281
0.000961624
0.00101477
0.00106629
0.00111226
0.00115136
0.00118535
0.00121275
0.00123574
0.00125065
0.00125737
0.00125387
0.00124366
0.00122497
0.00120151
0.00117048
0.00113198
0.00108511
0.00103589
0.000991207
0.000956879
0.000945888
0.000966259
0.00101599
0.00107384
0.00115619
0.00114332
0.00108435
0.00102272
0.000982873
0.000978449
0.00101095
0.00106015
0.00110916
0.00115344
0.00119131
0.00122532
0.0012528
0.00127645
0.00129141
0.00129833
0.00129526
0.00128575
0.00126815
0.00124589
0.00121593
0.00117867
0.00113252
0.00108369
0.00104059
0.0010099
0.00100329
0.00102313
0.00106519
0.00111293
0.00119434
0.00118337
0.00113148
0.00107639
0.00104034
0.00103502
0.00106455
0.00111108
0.00115914
0.00120259
0.00123903
0.00127104
0.00129697
0.00131979
0.0013343
0.00134144
0.00133887
0.00133022
0.00131394
0.00129366
0.00126634
0.00123246
0.00118983
0.00114023
0.0010964
0.00106697
0.00106203
0.00108034
0.00111658
0.00115662
0.00123982
0.00122983
0.0011839
0.00113341
0.00110062
0.00109611
0.00112594
0.00117214
0.0012166
0.00125632
0.00128985
0.00131921
0.00134323
0.00136477
0.00137865
0.00138595
0.00138398
0.00137636
0.00136162
0.00134365
0.00131942
0.00128903
0.0012513
0.00120645
0.00116339
0.00113051
0.00112487
0.0011409
0.00117271
0.00120699
0.00129635
0.00128634
0.0012456
0.00119922
0.00117096
0.00116924
0.00119668
0.00123665
0.00127558
0.00131096
0.00134144
0.00136808
0.0013901
0.00141024
0.00142345
0.0014309
0.00142962
0.00142317
0.00141005
0.00139446
0.00137331
0.00134617
0.00131312
0.00127408
0.00123606
0.00120724
0.00119846
0.00121049
0.00123852
0.00126825
0.00135984
0.00134892
0.00131206
0.0012707
0.00124567
0.00124397
0.00126695
0.00130042
0.00133369
0.00136447
0.00139164
0.00141563
0.00143578
0.00145467
0.00146732
0.00147499
0.00147446
0.00146922
0.00145765
0.00144427
0.00142586
0.00140171
0.00137307
0.00134023
0.00130763
0.0012828
0.00127514
0.00128608
0.00131111
0.00133733
0.00142118
0.00140892
0.00137527
0.00133874
0.001317
0.00131521
0.00133337
0.00136024
0.00138817
0.00141472
0.00143854
0.00145999
0.00147844
0.00149634
0.00150868
0.00151675
0.00151701
0.00151286
0.00150258
0.00149108
0.00147501
0.00145377
0.00142917
0.00140186
0.00137452
0.00135394
0.0013477
0.00135757
0.00137994
0.0014034
0.00147613
0.00146279
0.00143215
0.00140047
0.00138173
0.00137958
0.00139279
0.00141338
0.00143606
0.00145896
0.00147995
0.00149935
0.00151643
0.00153375
0.00154608
0.00155475
0.00155576
0.00155244
0.00154308
0.00153301
0.00151876
0.00150018
0.00147883
0.00145608
0.00143397
0.00141771
0.00141302
0.00142187
0.00144195
0.00146295
0.00152162
0.00150761
0.00147996
0.00145295
0.00143689
0.00143389
0.00144212
0.00145685
0.00147461
0.00149416
0.00151326
0.00153169
0.00154831
0.0015658
0.00157856
0.00158802
0.0015897
0.00158678
0.00157769
0.00156829
0.00155493
0.001538
0.00151898
0.00150036
0.00148326
0.00147122
0.00146832
0.00147615
0.00149399
0.00151287
0.00155494
0.00154037
0.0015158
0.001493
0.00147914
0.0014747
0.0014778
0.00148736
0.00150131
0.00151851
0.00153672
0.00155542
0.00157303
0.00159195
0.00160583
0.00161636
0.00161857
0.00161536
0.00160544
0.00159532
0.00158144
0.00156488
0.00154749
0.00153211
0.00151934
0.00151143
0.00151059
0.00151765
0.00153316
0.00154981
0.00157298
0.00155797
0.00153589
0.00151663
0.00150335
0.00149638
0.00149582
0.00150194
0.00151452
0.0015319
0.00155139
0.00157201
0.00159219
0.0016138
0.00162944
0.00164112
0.00164361
0.00163923
0.00162705
0.00161456
0.00159861
0.00158071
0.0015632
0.0015489
0.00153907
0.00153492
0.00153631
0.00154312
0.00155659
0.00157113
0.00157328
0.00155746
0.00153667
0.00151781
0.001503
0.00149488
0.00149274
0.00150026
0.00151693
0.00153899
0.00156303
0.00158782
0.00161235
0.00163755
0.00165538
0.00166766
0.00166985
0.00166329
0.00164728
0.00163048
0.00161036
0.00158847
0.00156737
0.00155037
0.00153988
0.0015374
0.00154103
0.00154852
0.00156084
0.00157433
0.00155203
0.001533
0.0015099
0.0014914
0.00147964
0.00147349
0.00147535
0.00149575
0.00152567
0.00155733
0.00158827
0.00161814
0.00164743
0.00167552
0.00169478
0.00170588
0.00170648
0.00169657
0.00167569
0.00165311
0.001627
0.00159836
0.00156928
0.00154315
0.00152336
0.00151545
0.00151852
0.00152811
0.00154108
0.00155486
0.00150988
0.00148669
0.00145715
0.00145551
0.00146073
0.00147219
0.00149975
0.00153467
0.00157156
0.00160722
0.0016408
0.00167271
0.00170421
0.00173431
0.0017545
0.00176594
0.00176687
0.00175436
0.00172939
0.00170171
0.00167061
0.00163588
0.00159817
0.00155889
0.0015204
0.00148727
0.00147549
0.00148197
0.00149576
0.00151109
0.00149514
0.00148715
0.0014775
0.00148342
0.00150412
0.00153559
0.00157139
0.00160823
0.00164408
0.001678
0.00171006
0.00174106
0.00177234
0.00180282
0.00182288
0.00183462
0.00183635
0.00182432
0.00179923
0.00177149
0.00174095
0.00170706
0.00166975
0.00162964
0.00158767
0.00154581
0.00151087
0.00149189
0.00148609
0.00148793
0.00157082
0.00157277
0.0015783
0.00159263
0.00161515
0.00164232
0.00167164
0.00170108
0.00172982
0.00175773
0.00178508
0.00181268
0.00184178
0.00187122
0.00189029
0.0019023
0.00190535
0.00189525
0.00187203
0.00184687
0.00182007
0.00179101
0.00175957
0.00172609
0.00169109
0.00165546
0.00162157
0.00159273
0.00157371
0.00156435
0.00169477
0.00170048
0.00170989
0.00172266
0.001738
0.00175501
0.00177337
0.00179239
0.00181195
0.0018322
0.00185347
0.00187644
0.00190223
0.00192969
0.00194733
0.00195974
0.00196452
0.00195693
0.00193661
0.00191536
0.0018938
0.00187133
0.00184787
0.00182366
0.00179902
0.00177422
0.00174996
0.00172669
0.00170649
0.00169293
0.00182027
0.00182389
0.00182919
0.00183505
0.00184134
0.00184838
0.00185662
0.00186617
0.00187733
0.00189042
0.00190576
0.001924
0.00194603
0.00197096
0.00198724
0.00200015
0.00200689
0.00200188
0.00198481
0.00196801
0.00195206
0.00193627
0.00192058
0.00190516
0.00189019
0.00187561
0.00186132
0.00184706
0.00183319
0.00182168
0.00192022
0.00191931
0.0019182
0.00191674
0.00191528
0.00191447
0.00191489
0.00191704
0.00192145
0.00192856
0.00193875
0.00195261
0.00197066
0.00199274
0.00200783
0.00202115
0.00202993
0.00202726
0.00201361
0.00200156
0.00199102
0.00198131
0.00197232
0.00196415
0.00195683
0.00195017
0.00194374
0.00193711
0.0019302
0.00192322
0.0019891
0.0019836
0.00197701
0.00196984
0.00196262
0.00195607
0.00195075
0.00194728
0.00194634
0.00194853
0.00195433
0.00196402
0.00197827
0.0019969
0.00201088
0.00202451
0.00203513
0.00203467
0.00202441
0.00201747
0.00201192
0.00200752
0.00200414
0.00200174
0.0020002
0.00199926
0.0019984
0.00199721
0.00199554
0.00199283
0.00021434
0.000209938
0.000182538
0.000153186
0.000137936
0.00014554
0.000150012
0.000151451
0.000151313
0.000150765
0.000149591
0.000148258
0.000146834
0.000145715
0.000144964
0.000144685
0.000144531
0.000145433
0.000147405
0.000149973
0.000152683
0.000155432
0.000157822
0.000159849
0.000160685
0.000158358
0.000150089
0.000144203
0.000173653
0.00020622
0.00138935
0.00145613
0.00136658
0.00108047
0.000955002
0.000979772
0.00100409
0.00102266
0.00102162
0.00100876
0.00099543
0.00098571
0.000978423
0.000976893
0.000979149
0.000987369
0.000992547
0.000997747
0.00100402
0.00101256
0.00102162
0.00103378
0.00104614
0.00104917
0.00103035
0.0009988
0.00094008
0.000975498
0.0012641
0.00138654
0.00214306
0.00229121
0.00228256
0.00203822
0.00186668
0.00187697
0.00187862
0.00187641
0.00184518
0.00180982
0.00177133
0.00173843
0.00171053
0.00169355
0.00168437
0.00169359
0.00171054
0.00173839
0.00176913
0.00180232
0.00183485
0.00186955
0.00189943
0.00192001
0.00190973
0.00188244
0.00182375
0.00187415
0.00211179
0.00216018
0.00261285
0.00280365
0.00290262
0.00282365
0.00269376
0.00266238
0.00262154
0.00256904
0.00250914
0.00245084
0.0023908
0.00233879
0.00229556
0.00226808
0.00225078
0.00226219
0.00229013
0.00233889
0.0023897
0.00244184
0.00249208
0.00254394
0.00258843
0.00262417
0.00264897
0.00265323
0.0026308
0.00267257
0.00275614
0.00266596
0.00296428
0.00317351
0.00336255
0.00343773
0.00338546
0.00333521
0.00325534
0.0031695
0.00309133
0.00301969
0.00295008
0.00289097
0.00284372
0.00281575
0.00279673
0.00281324
0.00284895
0.00291221
0.0029736
0.00303275
0.00308732
0.00314319
0.00319184
0.00323323
0.00328158
0.00332294
0.00333223
0.00332001
0.00324677
0.00305163
0.00325119
0.00346314
0.00370105
0.00387523
0.00391583
0.00387807
0.0037914
0.00370328
0.00362402
0.00355457
0.00349042
0.003439
0.00340062
0.00338306
0.00336945
0.00339332
0.00343315
0.00350349
0.00356472
0.00361723
0.00366077
0.00370485
0.00374286
0.00377408
0.00381984
0.0038756
0.00388183
0.0038051
0.00360759
0.00335723
0.00349957
0.00370428
0.00395472
0.00417109
0.00428565
0.00430116
0.00424401
0.00417383
0.00411339
0.00406671
0.0040262
0.00399883
0.00398324
0.0039877
0.00398695
0.0040199
0.00405985
0.00412887
0.0041782
0.00420943
0.00422573
0.00424027
0.00424805
0.00424901
0.00426659
0.00429718
0.00426069
0.0041174
0.00386833
0.00360725
0.00373218
0.00392471
0.00416515
0.00438899
0.0045455
0.0046145
0.00461667
0.00459995
0.00457554
0.0045625
0.00456103
0.00457456
0.00459529
0.00463271
0.0046527
0.00469576
0.00473174
0.00479049
0.00481503
0.00481213
0.004785
0.00475208
0.00471812
0.00467696
0.00463628
0.00460423
0.00451418
0.00432531
0.0040724
0.00383053
0.00397115
0.00414768
0.00437304
0.00457911
0.0047485
0.00486233
0.00492773
0.0049706
0.00500155
0.00504543
0.00509904
0.0051671
0.00523584
0.00531266
0.00535749
0.00541134
0.00544136
0.00548196
0.00547125
0.00542456
0.00534167
0.00524866
0.00515254
0.00504758
0.00493911
0.00484128
0.00470221
0.00450021
0.00426758
0.00405267
0.00423733
0.00439866
0.00460385
0.00478693
0.00495088
0.00509638
0.00521503
0.00532433
0.00542015
0.0055279
0.0056443
0.00577145
0.00589016
0.00600762
0.00607915
0.00614396
0.0061669
0.00618511
0.00613769
0.00604027
0.00589793
0.00573944
0.00557645
0.00540267
0.00522251
0.00506577
0.00489028
0.00469047
0.00448696
0.00429986
0.00454926
0.00469775
0.00488055
0.00504379
0.00520242
0.0053648
0.00552129
0.00569003
0.00585021
0.00602132
0.00619875
0.00638026
0.00654193
0.00669048
0.00678255
0.00685223
0.00686728
0.00685988
0.00678262
0.00664426
0.00645213
0.00623415
0.00600859
0.0057715
0.00553341
0.00532862
0.00512891
0.00493471
0.00475472
0.00459467
0.00492172
0.00505979
0.00522032
0.0053685
0.0055219
0.00569271
0.00587709
0.00608996
0.00630604
0.0065298
0.00675639
0.00697595
0.00716478
0.00732472
0.00742471
0.00749178
0.00749771
0.00746578
0.00736814
0.00720527
0.00698552
0.00672971
0.00645936
0.0061778
0.00589794
0.00565854
0.00544488
0.00525473
0.00509046
0.00495406
0.00536335
0.00549165
0.0056314
0.00576712
0.00591451
0.00608922
0.00629225
0.00653321
0.00678517
0.00704032
0.00729442
0.00753491
0.00774042
0.00790653
0.00801057
0.00807161
0.00806614
0.00801276
0.00789997
0.00771995
0.00748345
0.00720675
0.00691805
0.00661998
0.00632168
0.00606418
0.00584445
0.00565814
0.00550468
0.00538724
0.00587014
0.00598746
0.0061095
0.00623275
0.00637144
0.00654573
0.00675648
0.00700361
0.00726951
0.00754156
0.00781401
0.00806765
0.00828277
0.00845077
0.00855518
0.00860703
0.00858787
0.00851735
0.00839387
0.00820381
0.00795986
0.00767255
0.00737662
0.00707593
0.0067853
0.00653203
0.0063156
0.00613597
0.0059924
0.00589033
0.00641406
0.00652073
0.00662863
0.00673757
0.00686593
0.00703383
0.00724269
0.00749008
0.00776107
0.00804031
0.00832416
0.00858265
0.00880026
0.00896667
0.00906804
0.00910846
0.00907427
0.00899232
0.00886222
0.00866874
0.0084247
0.00813388
0.00784072
0.00754583
0.00726618
0.00702526
0.00682262
0.00665766
0.0065246
0.00643488
0.00695843
0.00705762
0.00715187
0.00724886
0.00737118
0.00753525
0.00774344
0.0079896
0.0082582
0.00853746
0.00882559
0.00908166
0.00929563
0.00945473
0.00954905
0.00957652
0.00952766
0.00944045
0.00930907
0.0091184
0.0088793
0.00859149
0.00830784
0.00802584
0.00776046
0.00752753
0.00733442
0.00718052
0.00705963
0.00697898
0.00750203
0.00759242
0.00766984
0.00776075
0.00787957
0.00804027
0.00824476
0.00848641
0.00875066
0.00902576
0.00930961
0.00955881
0.00976154
0.00990642
0.00998936
0.0100019
0.00993937
0.00985158
0.00972536
0.00954491
0.00931584
0.00903821
0.00876774
0.00850216
0.00825022
0.00802846
0.00784449
0.00769939
0.00758857
0.00751894
0.00802756
0.00810301
0.00817064
0.0082574
0.0083727
0.00852826
0.00872523
0.00895707
0.00921457
0.00948688
0.00975926
0.00999619
0.0101803
0.0103046
0.0103719
0.0103676
0.0102928
0.0102072
0.010093
0.00992974
0.00971592
0.00945629
0.00919828
0.00894816
0.00871406
0.00850785
0.00833559
0.00820015
0.00809878
0.00803799
0.00850711
0.00856621
0.00862871
0.00871092
0.00882054
0.00896761
0.00915292
0.00937112
0.00961638
0.00988291
0.0101436
0.0103649
0.010525
0.010624
0.0106728
0.0106509
0.0105655
0.0104844
0.0103872
0.0102461
0.0100512
0.00981119
0.00956305
0.0093323
0.00912043
0.00893464
0.00877873
0.00865621
0.00856621
0.00851398
0.00890703
0.00894909
0.00900641
0.00908174
0.00918226
0.009317
0.00948725
0.00968882
0.00992033
0.0101747
0.0104195
0.0106216
0.0107575
0.0108309
0.0108621
0.0108255
0.0107324
0.0106566
0.0105774
0.0104578
0.0102807
0.0100593
0.00982621
0.00961675
0.00942996
0.00926867
0.00913389
0.00902865
0.00895357
0.00891172
0.00918142
0.00920941
0.00925758
0.00932254
0.00941029
0.00952982
0.00968326
0.00986747
0.0100857
0.0103249
0.0105525
0.0107322
0.0108409
0.0108897
0.0109042
0.0108591
0.0107633
0.0106926
0.0106318
0.0105326
0.0103756
0.0101715
0.00995585
0.00976353
0.0096014
0.0094658
0.00935496
0.0092708
0.00921476
0.00918653
0.00928701
0.00930161
0.00933665
0.00938777
0.00946014
0.00956367
0.00970141
0.00987312
0.0100787
0.010305
0.0105195
0.0106805
0.0107675
0.0107997
0.0108057
0.0107645
0.0106734
0.0106082
0.0105607
0.0104754
0.01033
0.0101346
0.00993109
0.00974972
0.00960336
0.00948939
0.00940131
0.00933921
0.0093049
0.00929407
0.00919699
0.00919625
0.0092161
0.00925096
0.00930735
0.00939727
0.00952736
0.00969161
0.00989071
0.0101127
0.0103232
0.0104787
0.0105575
0.0105884
0.010598
0.0105777
0.0105032
0.0104402
0.0103979
0.010316
0.0101665
0.00996591
0.0097619
0.00958091
0.00943435
0.00932904
0.00925689
0.00921252
0.0091984
0.00920679
0.00892036
0.00890307
0.00890879
0.00892749
0.00897243
0.00905749
0.00918803
0.00936151
0.00957948
0.00981932
0.0100458
0.0102133
0.0103073
0.0103579
0.010391
0.0103901
0.0103254
0.0102626
0.0102131
0.0101138
0.00993758
0.00971385
0.00949505
0.00929789
0.00913758
0.00902303
0.00895004
0.00891271
0.00891229
0.00893328
0.00851213
0.00848329
0.00848007
0.00851481
0.00858767
0.00870321
0.00886504
0.00907154
0.00932323
0.00959598
0.00985547
0.0100607
0.0101872
0.0102665
0.0103294
0.0103471
0.0102853
0.0102082
0.010134
0.0100037
0.00979153
0.00952975
0.00926428
0.00902192
0.00881779
0.00866132
0.00855979
0.0085106
0.00850968
0.00853174
0.00814203
0.00815187
0.00818205
0.00824889
0.00835856
0.00851219
0.00871267
0.00895828
0.00924622
0.00955533
0.00985186
0.0100962
0.010261
0.0103761
0.0104715
0.0105062
0.0104465
0.0103546
0.0102528
0.0100913
0.00984357
0.00954273
0.00923066
0.00893924
0.00868642
0.00848047
0.00832689
0.00822849
0.00817865
0.00815871
0.00805695
0.00810573
0.00816995
0.00826996
0.00841332
0.00860007
0.00883268
0.00910946
0.00942689
0.00976587
0.0100925
0.0103674
0.0105662
0.0107146
0.0108394
0.0108916
0.0108365
0.0107367
0.0106126
0.0104264
0.0101523
0.00981995
0.00947139
0.00913957
0.00884444
0.0085945
0.00839127
0.00824049
0.00814011
0.00806941
0.00839333
0.00847315
0.00857462
0.00870672
0.00887655
0.00908544
0.00933574
0.00962748
0.0099587
0.0103106
0.0106506
0.0109416
0.011163
0.0113357
0.0114838
0.0115573
0.0115108
0.0114162
0.0112797
0.0110811
0.010796
0.0104474
0.0100776
0.00972052
0.00939801
0.0091159
0.00887151
0.00867292
0.00852109
0.0084046
0.00941405
0.0095335
0.00966809
0.00982262
0.0100033
0.0102149
0.0104564
0.0107355
0.0110533
0.0113891
0.0117144
0.0119991
0.0122225
0.012406
0.0125717
0.0126687
0.0126377
0.0125642
0.0124409
0.012253
0.0119806
0.0116463
0.011282
0.0109247
0.0105981
0.0103054
0.0100351
0.00979736
0.00959749
0.00943099
0.0119562
0.0120922
0.0122311
0.0123694
0.0125143
0.0126752
0.0128477
0.0130477
0.0132835
0.0135416
0.0137999
0.0140307
0.0142185
0.0143838
0.0145624
0.0146916
0.0147009
0.0146752
0.0146054
0.0144729
0.0142652
0.014
0.013705
0.0134134
0.0131413
0.012892
0.0126422
0.0123994
0.0121767
0.0119826
0.000225615
0.000222678
0.000204771
0.000185231
0.000174036
0.00017349
0.00017383
0.000172976
0.000171158
0.000168767
0.000165996
0.000163374
0.000160873
0.00015915
0.000157822
0.000157663
0.000158212
0.000160195
0.000163123
0.000166886
0.000170775
0.000174927
0.000178841
0.000182209
0.000184283
0.000184005
0.000181471
0.000181531
0.00020021
0.000221098
0.00175736
0.00181213
0.00179146
0.0017268
0.00162054
0.00153834
0.00145342
0.00139477
0.00135354
0.00132508
0.00130311
0.0012911
0.00128665
0.00129635
0.00130994
0.00133422
0.00134608
0.00135417
0.00135498
0.00135908
0.00136428
0.0013777
0.00139771
0.00142856
0.00147367
0.00153791
0.001566
0.00162223
0.00174726
0.00175732
0.00317296
0.00330484
0.00337596
0.0033745
0.00319468
0.00301272
0.00285198
0.00274272
0.00267074
0.00262623
0.00259501
0.00258212
0.00258399
0.00261214
0.00264641
0.00269734
0.00272094
0.00273992
0.00274168
0.00274443
0.00274411
0.00275369
0.00277256
0.00281076
0.00287946
0.00299054
0.00310552
0.00321609
0.00324609
0.00315934
0.00428561
0.0044965
0.0047125
0.00483469
0.00466505
0.0044327
0.00421236
0.00404965
0.00393898
0.00387055
0.0038267
0.0038117
0.00382138
0.00387138
0.0039306
0.00400859
0.00404458
0.00407601
0.0040787
0.00407946
0.00407271
0.00407832
0.00409904
0.00415084
0.00424913
0.00439922
0.0045519
0.00464592
0.00450665
0.00429037
0.00521815
0.00549683
0.00586341
0.00612881
0.00605519
0.00583421
0.00559023
0.00539258
0.00525003
0.00515878
0.005103
0.00508705
0.00510552
0.00518077
0.00526696
0.00537221
0.00542163
0.00546686
0.00547086
0.00546706
0.00545122
0.00544992
0.00546972
0.00552984
0.00564485
0.0058039
0.00593552
0.00591095
0.00559309
0.00525274
0.00601452
0.00635667
0.00685915
0.00726609
0.00734472
0.00719976
0.00698731
0.00679169
0.00664131
0.0065422
0.00648303
0.00647245
0.00650424
0.00660748
0.00672133
0.00685318
0.00691628
0.0069764
0.00697936
0.00696632
0.00693463
0.00691594
0.00692017
0.00696669
0.0070635
0.00718235
0.00721836
0.00701888
0.00653808
0.00608202
0.00669198
0.0070926
0.00769652
0.00823517
0.00847493
0.00846899
0.00834019
0.00819664
0.00807588
0.00799703
0.00795414
0.00796285
0.00801772
0.00815346
0.00829521
0.00845217
0.00852763
0.00859918
0.00859542
0.00856317
0.00850129
0.00844558
0.00840666
0.00840284
0.00843306
0.00844888
0.00833356
0.0079629
0.00733975
0.00679544
0.00726229
0.00765838
0.00828927
0.00894772
0.00938981
0.00954212
0.0095544
0.00950838
0.00946028
0.00943653
0.00943747
0.00948681
0.00958047
0.00975539
0.0099263
0.010107
0.0101903
0.0102654
0.0102432
0.0101763
0.0100633
0.0099444
0.00982806
0.00973104
0.00964198
0.00950259
0.00922343
0.00864168
0.00793562
0.00738616
0.00772986
0.00807451
0.00869203
0.0093857
0.00996123
0.0103429
0.0105335
0.0106199
0.0106828
0.0107481
0.0108216
0.0109361
0.0110851
0.0113074
0.0115094
0.0117127
0.0117975
0.0118639
0.0118084
0.0116888
0.011502
0.0112939
0.0110683
0.010838
0.010599
0.0102604
0.00973807
0.00905763
0.00834212
0.00783488
0.00811605
0.00843541
0.00901096
0.0097041
0.0103564
0.0108569
0.0112034
0.0114605
0.0116602
0.0118409
0.0120104
0.0122097
0.0124287
0.0127028
0.0129366
0.0131614
0.0132414
0.0132863
0.0131833
0.0129944
0.012718
0.0124023
0.0120448
0.0116604
0.0112217
0.0107246
0.0100931
0.00936401
0.0086749
0.0082234
0.00845289
0.00874957
0.00929023
0.00995504
0.0106239
0.011198
0.0116634
0.0120464
0.0123735
0.0126743
0.012957
0.0132498
0.0135455
0.0138705
0.0141336
0.0143789
0.0144504
0.0144631
0.0143056
0.0140379
0.0136634
0.0132288
0.0127517
0.0122348
0.0116714
0.0110515
0.0103531
0.00961411
0.00897276
0.00855214
0.00876954
0.00903818
0.00953426
0.0101462
0.0107902
0.0113947
0.0119358
0.0124222
0.0128655
0.0132827
0.0136732
0.0140565
0.0144219
0.0147893
0.0150737
0.0153371
0.0153987
0.0153753
0.0151684
0.0148294
0.0143658
0.0138276
0.0132361
0.012607
0.0119472
0.0112573
0.0105394
0.00983559
0.00924241
0.0088564
0.00909355
0.00933094
0.00977093
0.0103197
0.0109197
0.0115221
0.0121051
0.0126665
0.0132027
0.0137171
0.0142009
0.0146626
0.0150875
0.0154876
0.0157862
0.0160559
0.0161059
0.0160522
0.015804
0.0154052
0.014867
0.0142446
0.0135643
0.0128535
0.012131
0.0114099
0.0107034
0.0100478
0.00951101
0.00916691
0.00944678
0.00965216
0.0100341
0.010518
0.011066
0.0116474
0.0122465
0.0128548
0.0134577
0.0140463
0.0146036
0.0151312
0.0156085
0.0160328
0.0163366
0.0165924
0.0166235
0.0165401
0.016264
0.0158232
0.015232
0.0145486
0.0138067
0.0130447
0.0122906
0.0115662
0.0108895
0.0102882
0.00980886
0.00950749
0.00984604
0.0100219
0.0103505
0.0107749
0.011271
0.0118221
0.0124195
0.0130515
0.0136962
0.014335
0.0149441
0.015521
0.0160371
0.016483
0.0167924
0.017021
0.0170244
0.0169052
0.0166048
0.016141
0.0155211
0.0148032
0.0140272
0.0132408
0.0124795
0.0117703
0.0111322
0.0105845
0.0101584
0.00989607
0.0103058
0.0104568
0.0107406
0.0111143
0.0115636
0.0120824
0.0126673
0.0133046
0.013969
0.0146345
0.0152734
0.0158801
0.0164193
0.0168771
0.0171897
0.0173947
0.0173646
0.0172169
0.0168974
0.0164162
0.0157838
0.0150566
0.0142732
0.0134863
0.0127368
0.0120539
0.0114561
0.0109571
0.0105768
0.0103473
0.0108391
0.0109702
0.0112183
0.0115508
0.0119606
0.0124489
0.0130147
0.0136434
0.0143081
0.0149791
0.0156269
0.0162425
0.0167867
0.0172425
0.0175481
0.0177222
0.0176499
0.0174829
0.0171568
0.0166755
0.0160507
0.0153375
0.0145722
0.0138065
0.0130841
0.0124347
0.0118763
0.0114195
0.0110771
0.0108739
0.0114498
0.0115655
0.0117857
0.0120856
0.0124634
0.0129239
0.0134667
0.0140768
0.0147264
0.0153847
0.0160226
0.016627
0.0171568
0.0175923
0.0178758
0.0180005
0.0178748
0.0176966
0.0173817
0.0169226
0.0163293
0.0156535
0.0149296
0.0142048
0.0135228
0.0129131
0.0123932
0.0119731
0.0116621
0.0114797
0.0121249
0.0122283
0.0124273
0.0127022
0.0130546
0.0134903
0.0140081
0.0145926
0.0152165
0.0158486
0.0164609
0.0170359
0.0175323
0.0179276
0.0181707
0.0182192
0.0180332
0.01785
0.0175594
0.017146
0.0166085
0.015992
0.0153294
0.0146624
0.0140322
0.0134682
0.0129877
0.0126008
0.0123165
0.0121513
0.0128298
0.0129236
0.0131074
0.0133645
0.0136974
0.0141113
0.0146038
0.0151589
0.0157503
0.0163483
0.0169242
0.0174561
0.0179024
0.0182386
0.0184235
0.0183722
0.0181248
0.0179394
0.0176822
0.0173284
0.0168648
0.0163241
0.0157371
0.0151408
0.0145711
0.0140581
0.0136189
0.0132642
0.0130037
0.0128534
0.0135086
0.0135964
0.0137715
0.0140179
0.0143374
0.0147334
0.0152024
0.0157278
0.0162849
0.0168454
0.0173796
0.0178603
0.0182448
0.0185082
0.0186218
0.0184598
0.0181582
0.017971
0.0177503
0.0174556
0.0170714
0.0166127
0.0161074
0.0155879
0.0150833
0.0146237
0.014227
0.013904
0.0136655
0.0135287
0.0140908
0.0141782
0.0143526
0.0145971
0.0149104
0.015295
0.0157451
0.0162442
0.0167699
0.0172948
0.0177874
0.018215
0.0185331
0.018718
0.0187563
0.0184931
0.0181555
0.0179659
0.0177751
0.0175268
0.0172102
0.0168262
0.0163974
0.0159512
0.015509
0.0150999
0.0147428
0.0144492
0.0142302
0.0141047
0.0145081
0.014603
0.0147874
0.0150408
0.0153578
0.0157396
0.0161786
0.0166593
0.0171614
0.0176576
0.0181139
0.0184932
0.0187489
0.0188621
0.0188353
0.0185105
0.0181664
0.0179736
0.0177944
0.0175659
0.0172879
0.0169566
0.0165855
0.0161966
0.0158036
0.0154338
0.015107
0.0148353
0.0146302
0.0145109
0.0147193
0.014833
0.0150392
0.0153146
0.0156465
0.0160352
0.0164737
0.0169478
0.0174383
0.0179167
0.0183476
0.0186904
0.0188972
0.0189593
0.018895
0.018589
0.0182766
0.018078
0.017882
0.0176326
0.0173521
0.0170357
0.01669
0.0163296
0.015961
0.0156083
0.0152947
0.0150313
0.0148295
0.0147061
0.0147435
0.0148818
0.0151226
0.0154339
0.0157919
0.0161969
0.0166471
0.0171265
0.0176192
0.018092
0.0185109
0.0188338
0.0190136
0.0190566
0.0189993
0.0187854
0.0185087
0.0182982
0.0180895
0.0178184
0.0174965
0.017138
0.0167773
0.0164085
0.0160325
0.0156634
0.015331
0.0150527
0.0148472
0.0147297
0.0146826
0.014848
0.0151243
0.0154594
0.0158517
0.0162919
0.0167629
0.0172578
0.0177651
0.0182416
0.0186606
0.0189814
0.0191593
0.0192187
0.0192142
0.0190797
0.0188411
0.018625
0.0183994
0.0181095
0.0177552
0.0173552
0.0169468
0.0165387
0.016122
0.015711
0.0153313
0.0150159
0.0147831
0.0146576
0.0147028
0.0149072
0.0152213
0.0155906
0.0160055
0.0164597
0.0169405
0.0174435
0.0179519
0.0184519
0.0188831
0.0192154
0.0194096
0.01951
0.019573
0.0195146
0.0193218
0.0191138
0.0188767
0.0185658
0.0181863
0.01775
0.017293
0.0168294
0.0163524
0.015911
0.0155045
0.015133
0.0148438
0.0146704
0.0150323
0.0152708
0.0156138
0.0160054
0.0164355
0.016893
0.0173716
0.0178678
0.0183701
0.018858
0.0192877
0.0196323
0.0198532
0.0200035
0.0201463
0.0201726
0.0200427
0.0198605
0.019623
0.0193012
0.0188926
0.0184284
0.017941
0.0174502
0.0169535
0.0164721
0.0160262
0.0156054
0.0152442
0.0150053
0.0160224
0.0162759
0.0166212
0.0170142
0.0174342
0.0178617
0.0183008
0.0187498
0.0192033
0.0196465
0.0200451
0.0203749
0.0206151
0.0208103
0.0210392
0.021171
0.0211277
0.0209993
0.0207789
0.0204602
0.0200566
0.0195995
0.019117
0.0186266
0.0181334
0.0176487
0.0171847
0.0167333
0.0163228
0.0160153
0.0182856
0.0184979
0.0187848
0.0191043
0.0194326
0.0197537
0.020072
0.0203922
0.0207195
0.0210452
0.0213495
0.0216172
0.0218432
0.0220724
0.0223847
0.0226404
0.0227134
0.0226757
0.0225152
0.0222471
0.0218993
0.0215037
0.0210889
0.0206699
0.0202523
0.0198409
0.0194317
0.0190177
0.0186299
0.0183133
0.000236814
0.000232879
0.000220045
0.000206037
0.000195359
0.000189484
0.000185664
0.000183198
0.000181053
0.000179036
0.000176746
0.000174729
0.000172728
0.000171657
0.000170602
0.000170802
0.000171286
0.000173209
0.00017562