/*--------------------------------*- C++ -*----------------------------------*\
| =========                 |                                                 |
| \\      /  F ield         | OpenFOAM: The Open Source CFD Toolbox           |
|  \\    /   O peration     | Version:  5.0                                   |
|   \\  /    A nd           | Web:      www.OpenFOAM.org                      |
|    \\/     M anipulation  |                                                 |
\*---------------------------------------------------------------------------*/
FoamFile
{
    version     2.0;
    format      ascii;
    class       volScalarField;
    location    "50/air";
    object      epsilon;
}
// * * * * * * * * * * * * * * * * * * * * * * * * * * * * * * * * * * * * * //

dimensions      [0 2 -3 0 0 0 0];

internalField   nonuniform List<scalar> 
243000
(
5.50936
4.37469
2.48306
1.21731
1.35514
2.14992
3.04847
4.09617
5.36546
6.5609
7.62557
8.54308
9.2786
9.86062
10.2477
10.3775
10.0567
9.64629
9.11521
8.46071
7.64646
6.70562
5.65032
4.51469
3.49609
2.63675
1.82193
1.05923
2.09434
3.87509
3.07977
2.48201
1.39344
0.62525
0.74592
1.15508
1.59637
2.05913
2.50362
2.89673
3.23564
3.52339
3.75708
3.94793
4.08279
4.12936
4.04122
3.91052
3.73782
3.52927
3.27441
2.97624
2.63279
2.24872
1.83185
1.41661
0.996902
0.640069
1.11626
2.28271
3.76125
3.06106
1.65873
0.86778
1.07215
1.55758
2.05275
2.56783
3.07143
3.5276
3.92465
4.26412
4.54169
4.76952
4.93097
4.98458
4.89106
4.73376
4.52201
4.26798
3.96198
3.60759
3.20542
2.76457
2.30164
1.84096
1.35492
0.940827
1.35349
2.79098
4.22313
3.51726
1.90602
1.16373
1.36952
1.83603
2.31849
2.85209
3.40245
3.91135
4.35871
4.74357
5.05889
5.31815
5.5019
5.56285
5.46901
5.29065
5.04489
4.75041
4.39744
3.9916
3.53721
3.05013
2.5634
2.10714
1.63486
1.24208
1.62051
3.1655
4.57658
3.90109
2.30682
1.50206
1.64125
2.03638
2.48404
3.04152
3.63711
4.19563
4.68908
5.11531
5.46356
5.74943
5.95117
6.01886
5.9278
5.73399
5.45982
5.12941
4.73199
4.27628
3.77012
3.23654
2.71277
2.27274
1.86127
1.55339
1.96067
3.49798
4.90295
4.27764
2.78213
1.87056
1.90358
2.21135
2.63029
3.22397
3.86057
4.46271
4.99508
5.45616
5.83116
6.13805
6.35343
6.42657
6.33928
6.13682
5.84087
5.48115
5.04519
4.54464
3.99003
3.41004
2.84663
2.40815
2.06776
1.8794
2.36623
3.85012
5.22587
4.65819
3.27479
2.26353
2.17914
2.40675
2.82177
3.4482
4.11588
4.7521
5.31469
5.8032
6.19891
6.52211
6.74767
6.82532
6.7417
6.53639
6.22464
5.84269
5.37579
4.83761
4.24081
3.62621
3.04352
2.57803
2.2846
2.22146
2.84919
4.22022
5.55897
5.04822
3.76918
2.70284
2.49578
2.65926
3.09401
3.73765
4.42409
5.08326
5.66769
6.17738
6.58977
6.92678
7.16058
7.2427
7.16193
6.95771
6.63497
6.23673
5.74582
5.17718
4.54515
3.90551
3.31409
2.8175
2.55257
2.59982
3.3761
4.60839
5.91457
5.45678
4.27267
3.24905
2.89113
3.00112
3.45342
4.10134
4.79705
5.46857
6.06758
6.59415
7.02183
7.37324
7.61519
7.70295
7.62463
7.42113
7.09276
6.68235
6.1724
5.57935
4.91831
4.2617
3.67155
3.18561
2.93036
3.08268
3.91279
5.02076
6.30649
5.89575
4.79585
3.85698
3.40433
3.45677
3.89824
4.54463
5.24341
5.91867
6.52661
7.06766
7.51206
7.8822
8.13458
8.23054
8.1543
7.95124
7.61651
7.19905
6.67286
6.06025
5.37446
4.7047
4.1208
3.67043
3.48734
3.73467
4.48326
5.46957
6.75134
6.38503
5.36228
4.48654
4.03066
4.02046
4.43363
5.07566
5.77255
6.44651
7.05971
7.61563
8.08133
8.478
8.74477
8.85267
8.77844
8.576
8.23228
7.80572
7.26876
6.63999
5.93063
5.24501
4.66561
4.24876
4.13707
4.41034
5.09342
5.96849
7.26999
6.94463
5.99127
5.16425
4.71236
4.66989
5.06255
5.69778
6.39355
7.07081
7.6935
8.26896
8.76172
9.19609
9.48178
9.60588
9.53382
9.33379
8.97986
8.54309
7.98859
7.34685
6.61294
5.90043
5.31495
4.92051
4.84956
5.13255
5.76066
6.54069
7.89042
7.59902
6.70704
5.91564
5.46917
5.41362
5.79712
6.43226
7.13546
7.83048
8.47285
9.07405
9.58838
10.0466
10.3453
10.4824
10.4148
10.2189
9.86391
9.42984
8.87458
8.22667
7.47103
6.70723
6.09299
5.70025
5.64643
5.92857
6.51155
7.21395
8.65375
8.3864
7.54543
6.77465
6.33401
6.28204
6.67315
7.33549
8.06488
8.77079
9.41631
10.0197
10.5409
11.0115
11.3189
11.4691
11.4085
11.2206
10.8706
10.45
9.91146
9.27823
8.53923
7.74507
7.06122
6.62926
6.56523
6.83656
7.38542
8.02691
9.63019
9.36979
8.57078
7.80552
7.38065
7.36086
7.78874
8.44966
9.16295
9.85655
10.4914
11.0834
11.602
12.0787
12.3919
12.5557
12.5052
12.3298
11.9895
11.591
11.0816
10.4748
9.77136
8.99452
8.29738
7.81298
7.69143
7.92886
8.45349
9.05029
10.9148
10.6401
9.87179
9.11498
8.70095
8.68782
9.09549
9.71396
10.3839
11.046
11.6595
12.2334
12.7455
13.2263
13.5452
13.7246
13.6875
13.5281
13.2001
12.8284
12.3546
11.7794
11.1182
10.3969
9.72779
9.24822
9.10938
9.3253
9.833
10.3992
12.4099
12.0955
11.336
10.5891
10.1785
10.1542
10.5111
11.0619
11.6707
12.2881
12.8704
13.4233
13.9296
14.4184
14.7469
14.9459
14.9257
14.7834
14.4658
14.1201
13.6814
13.1403
12.5258
11.8808
11.2708
10.8265
10.6967
10.9108
11.4146
11.9695
13.982
13.6119
12.8498
12.1163
11.7074
11.6583
11.9408
12.4067
12.9465
13.5145
14.0618
14.5959
15.1021
15.6086
15.9549
16.1806
16.18
16.051
15.7359
15.4083
14.997
14.4907
13.922
13.3557
12.824
12.4412
12.3412
12.5633
13.0703
13.6238
15.4781
15.0503
14.2852
13.5733
13.1641
13.0764
13.2689
13.6422
14.1118
14.6364
15.1598
15.6894
16.2111
16.753
17.1294
17.3902
17.4105
17.2853
16.9556
16.6285
16.2267
15.7435
15.2104
14.7102
14.266
13.9639
13.9119
14.1472
14.6599
15.214
16.7358
16.254
15.4935
14.8101
14.3979
14.2612
14.3615
14.6504
15.0658
15.5663
16.095
16.6525
17.2218
17.8282
18.252
18.5565
18.5969
18.4583
18.0849
17.7249
17.2972
16.8041
16.2838
15.8245
15.4601
15.2457
15.2528
15.5047
16.0178
16.5689
17.5894
17.0619
16.3118
15.6576
15.2405
15.0558
15.0889
15.3352
15.7475
16.2748
16.8575
17.4893
18.1532
18.8633
19.3561
19.7099
19.767
19.5886
19.1261
18.6811
18.1751
17.6214
17.0695
16.605
16.2788
16.1309
16.1963
16.4677
16.9711
17.5102
17.9073
17.3351
16.5822
15.9506
15.5437
15.3528
15.4035
15.7144
16.2348
16.8815
17.5897
18.3504
19.1614
20.0097
20.5877
20.9813
21.045
20.7952
20.1899
19.597
18.9488
18.2643
17.6002
17.0447
16.6608
16.4998
16.5967
16.8795
17.3673
17.8971
17.64
17.0423
16.2805
15.676
15.3673
15.3105
15.5766
16.1554
16.9549
17.8247
18.7209
19.6458
20.6353
21.6256
22.2809
22.6688
22.7127
22.3587
21.5637
20.7649
19.9166
19.0284
18.1514
17.371
16.7606
16.4003
16.4135
16.6923
17.1619
17.6671
16.9647
16.3976
15.7043
15.4327
15.6053
16.0812
16.7992
17.6835
18.6629
19.6756
20.7026
21.7595
22.9027
24.0528
24.7966
25.2262
25.2658
24.7866
23.7893
22.7664
21.7086
20.6006
19.4718
18.3709
17.3526
16.4926
16.091
16.1898
16.5228
16.9446
17.0823
16.9829
16.8831
17.0528
17.5534
18.2821
19.1699
20.1516
21.1865
22.2463
23.3315
24.4709
25.7269
27.0168
27.8301
28.3176
28.3977
27.8977
26.7958
25.6644
24.5142
23.3216
22.0994
20.8816
19.7063
18.6199
17.7422
17.1816
16.9303
16.895
19.5835
19.7102
19.9431
20.3495
20.9383
21.6603
22.4878
23.3849
24.333
25.3266
26.3776
27.5242
28.8334
30.2242
31.0781
31.6293
31.7808
31.317
30.1763
29.017
27.8696
26.7067
25.5314
24.3661
23.2368
22.1673
21.203
20.3745
19.7695
19.4284
23.6684
23.8872
24.2116
24.6086
25.0735
25.6056
26.2147
26.8955
27.6491
28.4853
29.4234
30.5079
31.808
33.2511
34.1148
34.7335
34.9833
34.5953
33.4748
32.3579
31.2954
30.258
29.2407
28.2552
27.3167
26.4306
25.6063
24.8288
24.1353
23.6335
28.3333
28.4749
28.6652
28.8606
29.0705
29.3235
29.6489
30.0603
30.574
31.2093
31.9897
32.9649
34.1996
35.642
36.4953
37.1793
37.5447
37.2545
36.2032
35.1872
34.2712
33.4199
32.6214
31.8786
31.1981
30.5747
29.9979
29.4357
28.8866
28.4087
32.5382
32.4897
32.427
32.3456
32.2696
32.2394
32.2883
32.4383
32.7157
33.145
33.7523
34.5889
35.7022
37.0968
37.9262
38.661
39.147
38.9564
38.0151
37.151
36.4237
35.7876
35.2267
34.7369
34.3183
33.961
33.6451
33.337
33.0186
32.6876
35.6734
35.4027
35.086
34.7491
34.4233
34.1531
33.968
33.8915
33.9572
34.1938
34.6286
35.3002
36.2611
37.5454
38.3427
39.1092
39.7008
39.6081
38.7978
38.1367
37.6232
37.2089
36.8786
36.624
36.4384
36.3095
36.2143
36.1239
36.0198
35.8672
7.58409
7.99485
5.97406
4.03492
3.69879
5.01296
6.21275
7.13437
7.95079
8.6125
9.09692
9.43931
9.62923
9.72333
9.74282
9.66961
9.49423
9.3765
9.29587
9.17282
8.93819
8.5966
8.10486
7.45645
6.68508
5.58639
4.11714
3.11212
4.69585
6.77579
3.87812
4.30394
3.40695
2.69385
2.83103
3.35732
3.7578
3.97429
4.14194
4.28432
4.38843
4.45916
4.49686
4.52005
4.52209
4.49657
4.46732
4.44288
4.41137
4.36877
4.30489
4.22909
4.14036
4.0516
3.95402
3.6903
3.1664
2.46421
2.8971
3.87919
3.80427
4.02467
3.22186
2.58486
2.71134
3.06792
3.37696
3.58481
3.75631
3.88854
3.98259
4.04576
4.08191
4.10272
4.10088
4.07464
4.05605
4.03519
4.00105
3.95292
3.89121
3.82021
3.73965
3.64793
3.54449
3.34043
2.98254
2.53665
2.9705
3.79694
3.91976
4.00866
3.29286
2.6936
2.68577
2.92033
3.17443
3.39571
3.59148
3.74654
3.85598
3.92302
3.96476
3.98468
3.98369
3.95311
3.93404
3.90591
3.86545
3.81112
3.74794
3.66393
3.55743
3.43012
3.28914
3.10686
2.87577
2.70429
3.17803
3.8565
4.05284
4.05527
3.4227
2.85574
2.7165
2.82867
3.01988
3.22868
3.42956
3.59642
3.71682
3.7894
3.83768
3.85832
3.85891
3.82815
3.80488
3.76728
3.72034
3.66015
3.59371
3.49842
3.37261
3.22426
3.0703
2.9267
2.82607
2.8965
3.40272
3.93846
4.18973
4.14504
3.59143
3.03319
2.79326
2.79872
2.93053
3.10969
3.2974
3.46032
3.58128
3.65298
3.70168
3.71983
3.72141
3.68974
3.66301
3.6174
3.56831
3.50818
3.44437
3.34741
3.21807
3.06971
2.92753
2.83177
2.85012
3.08609
3.60686
4.04473
4.33818
4.27208
3.78589
3.2273
2.91071
2.83456
2.91752
3.06987
3.23527
3.38245
3.49567
3.56123
3.60323
3.61404
3.61325
3.57781
3.54807
3.49726
3.45157
3.39892
3.34402
3.25475
3.13655
3.00419
2.88522
2.83579
2.94027
3.27917
3.79818
4.1748
4.50958
4.43776
4.00914
3.45627
3.08195
2.95539
2.99281
3.11162
3.2538
3.38628
3.48954
3.54923
3.58124
3.58198
3.57675
3.53394
3.49979
3.44428
3.40489
3.36459
3.3214
3.2458
3.14274
3.03097
2.94572
2.94123
3.09858
3.49445
4.00036
4.33462
4.71769
4.65399
4.27172
3.74714
3.33069
3.16888
3.17129
3.25974
3.37512
3.48473
3.57474
3.63272
3.66191
3.64841
3.63203
3.58146
3.54875
3.49009
3.45391
3.42479
3.38963
3.32956
3.25105
3.16928
3.11792
3.15169
3.3482
3.76039
4.23748
4.5396
4.97862
4.93207
4.59837
4.11588
3.67561
3.48515
3.46047
3.51287
3.5976
3.68036
3.75247
3.79743
3.81121
3.79019
3.76752
3.71556
3.68868
3.63941
3.61302
3.58328
3.55571
3.51357
3.46363
3.41686
3.40506
3.47774
3.70521
4.10735
4.53788
4.80584
5.31165
5.28922
5.01043
4.57843
4.15749
3.93299
3.86931
3.88142
3.92947
3.97853
4.02097
4.04127
4.03255
3.99766
3.96665
3.91352
3.89238
3.85488
3.84133
3.82992
3.82153
3.80345
3.78805
3.78196
3.81135
3.92191
4.16682
4.54511
4.92212
5.1523
5.73965
5.74753
5.52678
5.14905
4.75565
4.50739
4.40407
4.37245
4.376
4.383
4.38631
4.37597
4.34198
4.29252
4.2532
4.19804
4.18187
4.15687
4.15905
4.17206
4.19028
4.20423
4.22988
4.26927
4.34218
4.48673
4.74047
5.08648
5.40764
5.59891
6.28679
6.32899
6.16516
5.8352
5.46701
5.2047
5.06634
4.98653
4.94052
4.90009
4.86146
4.81635
4.75217
4.68237
4.63136
4.57239
4.56149
4.55046
4.57273
4.61674
4.67108
4.72296
4.79483
4.88247
5.00059
5.17654
5.43434
5.74648
6.01402
6.16646
6.97328
7.04916
6.93435
6.63901
6.28351
6.01368
5.84771
5.72032
5.62193
5.53142
5.45057
5.36381
5.2635
5.1675
5.1018
5.03802
5.0338
5.03933
5.08646
5.1675
5.26553
5.35605
5.47973
5.61881
5.78119
5.98575
6.24762
6.53125
6.75419
6.87288
7.80509
7.90553
7.81614
7.5247
7.18119
6.91026
6.72123
6.55795
6.40595
6.2654
6.14667
6.01302
5.87123
5.74353
5.66041
5.5915
5.59629
5.62188
5.69896
5.82234
5.96775
6.09103
6.26505
6.45756
6.6644
6.89143
7.14931
7.42349
7.62061
7.71846
8.75727
8.86113
8.7568
8.45055
8.12432
7.85739
7.65011
7.46435
7.26654
7.08145
6.92928
6.74864
6.56253
6.39899
6.29633
6.22182
6.23709
6.28665
6.39791
6.56681
6.75751
6.90531
7.12004
7.36192
7.60548
7.84035
8.09281
8.35872
8.5701
8.67296
9.75185
9.82405
9.66865
9.36845
9.06416
8.80463
8.58264
8.37453
8.16132
7.94799
7.76691
7.54476
7.31529
7.11546
6.99267
6.9115
6.93753
7.01214
7.15892
7.37303
7.60038
7.76761
8.00511
8.27827
8.5317
8.77486
9.02198
9.27945
9.50563
9.64986
10.6635
10.6732
10.4984
10.2216
9.94368
9.69416
9.46194
9.23679
9.02073
8.81744
8.61613
8.36648
8.10071
7.86989
7.72901
7.64062
7.676
7.77261
7.9509
8.20369
8.45198
8.63784
8.86779
9.12958
9.38602
9.63478
9.87707
10.126
10.3591
10.5329
11.3923
11.3664
11.1978
10.9551
10.708
10.472
10.2372
10.0048
9.78802
9.60177
9.41433
9.16792
8.88483
8.63731
8.4853
8.39111
8.43269
8.54302
8.74011
9.01462
9.25934
9.4404
9.62954
9.87031
10.1216
10.3686
10.6051
10.843
11.0765
11.2657
11.9238
11.8815
11.7333
11.5322
11.3208
11.1049
10.879
10.653
10.4501
10.2763
10.1013
9.88134
9.62072
9.38572
9.24089
9.14802
9.19165
9.30023
9.48844
9.74747
9.95293
10.1094
10.2713
10.4829
10.7169
10.95
11.1739
11.3946
11.6184
11.8117
12.2695
12.2264
12.11
11.956
11.7861
11.6004
11.3992
11.1977
11.0258
10.8733
10.7203
10.5328
10.3075
10.1063
9.97342
9.88738
9.92964
10.0203
10.1795
10.3987
10.5664
10.6954
10.831
10.9978
11.1955
11.3969
11.5953
11.789
11.9893
12.1727
12.5002
12.4705
12.3935
12.2895
12.1669
12.0238
11.8661
11.7148
11.5892
11.4792
11.3694
11.2343
11.0794
10.9434
10.841
10.772
10.8096
10.8761
10.976
11.1252
11.2316
11.3103
11.4026
11.5121
11.6434
11.79
11.9455
12.0992
12.2599
12.4177
12.7517
12.7466
12.7114
12.6554
12.5835
12.4948
12.4028
12.3195
12.2661
12.2283
12.193
12.1404
12.0968
12.0643
12.0095
11.9712
12.0084
12.0322
12.0448
12.0971
12.118
12.1151
12.1386
12.168
12.2064
12.2709
12.3636
12.4627
12.5683
12.6835
13.1928
13.2182
13.2205
13.2112
13.1942
13.174
13.1597
13.1576
13.1925
13.2475
13.3124
13.3615
13.4608
13.5957
13.656
13.6868
13.7243
13.6949
13.5806
13.4957
13.3765
13.2538
13.1915
13.1148
13.0454
13.0052
13.0146
13.0449
13.0831
13.1406
13.975
14.0304
14.0619
14.0765
14.0927
14.1241
14.1768
14.2527
14.3752
14.524
14.6978
14.8973
15.1456
15.4185
15.5714
15.6726
15.7203
15.6496
15.4245
15.2334
15.0228
14.8029
14.5974
14.4054
14.2373
14.107
14.032
13.9858
13.9502
13.9392
15.1004
15.1426
15.1621
15.169
15.1941
15.2496
15.3436
15.4783
15.6604
15.8815
16.1426
16.4477
16.8187
17.2274
17.4652
17.6377
17.7045
17.6048
17.2895
17.0151
16.7258
16.422
16.1265
15.8544
15.6224
15.4375
15.3047
15.2151
15.1398
15.0856
16.2937
16.2832
16.245
16.2148
16.2158
16.2598
16.3568
16.509
16.7163
16.9753
17.2865
17.6498
18.1028
18.6115
18.9113
19.15
19.2443
19.1283
18.7582
18.4317
18.1025
17.748
17.405
17.0975
16.8442
16.6487
16.5081
16.4166
16.3586
16.3049
17.0513
16.947
16.8393
16.7489
16.6972
16.6988
16.7616
16.8897
17.0838
17.3401
17.6569
18.0346
18.5165
19.0694
19.3997
19.6921
19.8196
19.6974
19.3157
18.9695
18.6464
18.2905
17.9434
17.6426
17.4104
17.2477
17.1418
17.0883
17.0738
17.0815
16.6825
16.5064
16.3292
16.1748
16.0625
16.0085
16.0226
16.1102
16.2742
16.5046
16.7966
17.1695
17.6391
18.174
18.4919
18.7787
18.9151
18.8069
18.4678
18.1532
17.8678
17.5725
17.2587
16.9949
16.8059
16.6908
16.6288
16.6176
16.6551
16.7164
14.4176
14.2338
14.0462
13.8819
13.7591
13.6918
13.6793
13.7422
13.8848
14.1025
14.3908
14.7481
15.1751
15.637
15.9005
16.1214
16.2295
16.1462
15.8748
15.6197
15.3951
15.1484
14.882
14.659
14.5011
14.4098
14.3539
14.336
14.3714
14.4427
8.65111
9.45506
8.44473
7.19372
7.09179
8.0756
9.19037
10.1973
11.0066
11.6144
11.9975
12.2245
12.2758
12.279
12.1829
12.1099
12.0242
12.0593
12.1037
12.1239
11.9854
11.7204
11.2542
10.5763
9.63939
8.42493
7.02995
6.02661
6.9789
8.12172
4.0153
4.46101
4.18357
3.81146
3.89763
4.28183
4.69095
4.99728
5.2
5.31766
5.365
5.36502
5.32615
5.278
5.21355
5.15966
5.16776
5.20904
5.23997
5.26371
5.26361
5.24618
5.1952
5.08989
4.89035
4.53512
4.05272
3.57793
3.76408
4.10047
3.47532
3.71918
3.46057
3.1424
3.18377
3.42511
3.70215
3.92909
4.09298
4.18983
4.22688
4.22018
4.18325
4.12926
4.06131
4.00095
4.01434
4.04753
4.06993
4.08038
4.08132
4.07176
4.04017
3.96795
3.83444
3.61511
3.33675
3.11643
3.31106
3.56648
3.28635
3.40209
3.13893
2.83929
2.81656
2.95031
3.13728
3.3142
3.45859
3.55513
3.60219
3.60787
3.58466
3.53721
3.47564
3.42005
3.42945
3.44871
3.45845
3.45446
3.44438
3.42383
3.38448
3.31514
3.21219
3.07749
2.9451
2.90129
3.13426
3.34479
3.16235
3.19422
2.92577
2.63626
2.54874
2.59724
2.70637
2.82888
2.94045
3.02275
3.07004
3.08366
3.07288
3.03626
2.98754
2.94275
2.94768
2.95421
2.95261
2.93898
2.92186
2.89663
2.85909
2.80438
2.73855
2.67607
2.6524
2.73763
3.00199
3.19347
3.07196
3.04385
2.76833
2.48058
2.34081
2.32438
2.37138
2.44283
2.5165
2.57511
2.61236
2.62542
2.62056
2.59306
2.55781
2.52471
2.5267
2.52484
2.5175
2.50115
2.48426
2.46368
2.43831
2.40689
2.37902
2.37282
2.42708
2.59572
2.88046
3.07897
3.01776
2.94369
2.66298
2.36931
2.194
2.12738
2.12804
2.15756
2.19642
2.22982
2.25213
2.2585
2.25318
2.23039
2.20524
2.18136
2.18216
2.17701
2.16948
2.15641
2.14578
2.13578
2.12732
2.12067
2.12553
2.16327
2.27027
2.48366
2.78427
2.99963
3.00695
2.9165
2.63988
2.32862
2.11282
2.01015
1.97225
1.96887
1.97872
1.98952
1.99623
1.9929
1.9827
1.96024
1.94065
1.92267
1.9237
1.91875
1.91509
1.90905
1.90814
1.91103
1.92029
1.9367
1.97031
2.04343
2.18484
2.44218
2.75273
2.96829
3.05066
2.96125
2.68758
2.3673
2.12133
1.97263
1.89984
1.86868
1.85399
1.84499
1.83687
1.82247
1.8049
1.77915
1.76103
1.74606
1.74831
1.74581
1.74837
1.7513
1.76182
1.77842
1.8052
1.84382
1.90286
2.01096
2.2005
2.47971
2.79381
3.00451
3.15473
3.05824
2.78908
2.45987
2.18893
2.01276
1.91042
1.84939
1.81169
1.78406
1.76124
1.73454
1.70741
1.67581
1.656
1.64191
1.64594
1.64754
1.658
1.67135
1.69425
1.7252
1.77032
1.83149
1.9227
2.05978
2.27457
2.57151
2.88716
3.09298
3.32324
3.22081
2.94783
2.60954
2.31921
2.11686
1.98691
1.90211
1.84334
1.79738
1.75801
1.71719
1.67834
1.63838
1.61415
1.59899
1.605
1.61225
1.63196
1.65768
1.69504
1.74258
1.80535
1.88776
2.00225
2.16756
2.40675
2.72041
3.03774
3.25056
3.56354
3.4589
3.18008
2.83214
2.52287
2.29379
2.13631
2.02584
1.94387
1.87718
1.81959
1.76228
1.70974
1.65854
1.62691
1.60836
1.61635
1.63076
1.66105
1.70093
1.7551
1.82099
1.90485
2.0112
2.15166
2.34462
2.60816
2.93569
3.26052
3.48213
3.88525
3.78073
3.49663
3.13663
2.80601
2.54879
2.36138
2.22207
2.1137
2.02312
1.94446
1.8683
1.79902
1.73253
1.69119
1.66353
1.67361
1.6965
1.7401
1.79727
1.87218
1.96017
2.06869
2.20259
2.37264
2.59522
2.88489
3.22994
3.5649
3.7952
4.30057
4.19722
3.90714
3.53232
3.17738
2.88969
2.66907
2.49672
2.3574
2.23855
2.13523
2.03862
1.9547
1.87264
1.81715
1.77125
1.77924
1.8073
1.86785
1.94619
2.04679
2.16193
2.30044
2.46695
2.67112
2.9266
3.24504
3.61124
3.95989
4.2005
4.82231
4.71976
4.4213
4.02826
3.64645
3.32584
3.06845
2.85827
2.68247
2.53004
2.39744
2.27599
2.17327
2.0776
2.01138
1.94404
1.94648
1.97337
2.04747
2.15093
2.28259
2.43069
2.6056
2.81102
3.05483
3.3473
3.69737
4.08872
4.45555
4.70973
5.4592
5.35554
5.04509
4.63109
4.22101
3.86563
3.56826
3.3155
3.09757
2.90589
2.73841
2.58655
2.45988
2.34495
2.2669
2.18339
2.17957
2.20923
2.29716
2.42146
2.58508
2.77214
2.99007
3.24111
3.53029
3.86394
4.24845
4.66853
5.05881
5.33122
6.2085
6.10092
5.7757
5.34094
4.90335
4.51293
4.1733
3.8744
3.60992
3.37384
3.16564
2.97751
2.82122
2.6805
2.58425
2.47743
2.46369
2.49825
2.6046
2.75651
2.95825
3.19072
3.45792
3.76015
4.09915
4.47746
4.89864
5.34947
5.767
6.06237
7.04952
6.93624
6.59789
6.14635
5.68547
5.26235
4.88083
4.53467
4.22149
3.9376
3.68403
3.45485
3.26375
3.09057
2.96944
2.82753
2.79889
2.83854
2.96905
3.15561
3.40228
3.68658
4.00809
4.36454
4.75509
5.17924
5.63735
6.11828
6.56359
6.88389
7.94243
7.82516
7.4803
7.02063
6.54497
6.0953
5.67643
5.28583
4.92501
4.5927
4.29243
4.01999
3.79082
3.57988
3.42782
3.23749
3.19255
3.23668
3.39092
3.61737
3.91338
4.2529
4.63099
5.04145
5.48114
5.94775
6.43921
6.94579
7.41554
7.75931
8.83162
8.7145
8.374
7.91998
7.44276
6.97759
6.53148
6.10434
5.70142
5.32444
4.98065
4.66698
4.40005
4.14912
3.96245
3.71502
3.65556
3.70178
3.87631
4.13873
4.48325
4.87568
5.30802
5.76743
6.24822
6.74739
7.26275
7.78569
8.27192
8.63479
9.64918
9.53797
9.21627
8.78593
8.32464
7.86091
7.40315
6.953
6.5194
6.10779
5.72944
5.38149
5.08198
4.79387
4.57299
4.26856
4.19885
4.24489
4.43206
4.71634
5.10147
5.53722
6.01362
6.50991
7.01732
7.53172
8.05417
8.57831
9.06845
9.44342
10.3262
10.2286
9.94179
9.55456
9.12953
8.68856
8.23887
7.7844
7.33798
6.90879
6.51098
6.14166
5.82069
5.50483
5.25644
4.9079
4.83559
4.88051
5.06638
5.3528
5.75883
6.21978
6.72063
7.23302
7.74565
8.25224
8.75792
9.26251
9.7402
10.1177
10.8125
10.7365
10.4984
10.1706
9.80139
9.40416
8.98334
8.54669
8.11045
7.68608
7.28899
6.91636
6.59121
6.26569
6.00579
5.64785
5.58463
5.62731
5.79117
6.05304
6.44834
6.90806
7.4058
7.90515
8.39622
8.86932
9.33121
9.79279
10.2396
10.6097
11.0919
11.0432
10.8591
10.5981
10.2958
9.95637
9.58287
9.1864
8.78438
8.38904
8.0162
7.66309
7.3553
7.04561
6.79999
6.50533
6.46917
6.50706
6.62138
6.82129
7.16663
7.588
8.04882
8.50141
8.94221
9.3575
9.74861
10.1495
10.5497
10.9078
11.1727
11.1494
11.0109
10.8094
10.5716
10.2961
9.98297
9.64475
9.29705
8.95346
8.62833
8.31833
8.05135
7.78611
7.58321
7.40586
7.36968
7.39262
7.48049
7.6444
7.90763
8.22623
8.61332
8.98898
9.35524
9.6907
9.99811
10.3243
10.6712
11.0109
11.0309
11.026
10.922
10.7725
10.5857
10.3677
10.121
9.85029
9.56976
9.29639
9.03866
8.79101
8.58667
8.39242
8.26605
8.14122
8.09963
8.1031
8.15672
8.27999
8.48637
8.73566
9.01953
9.29992
9.58319
9.84907
10.0631
10.317
10.6029
10.8997
10.599
10.5873
10.5014
10.3787
10.2399
10.0916
9.91257
9.7186
9.52216
9.32223
9.14353
8.97248
8.84684
8.73647
8.67613
8.60266
8.5594
8.54032
8.55214
8.62302
8.76376
8.93898
9.13247
9.32825
9.5344
9.71855
9.85477
10.0136
10.2433
10.5088
9.75195
9.71182
9.64088
9.54972
9.46273
9.37476
9.26403
9.15004
9.04043
8.93503
8.84585
8.76219
8.72086
8.69626
8.69626
8.68174
8.64589
8.60513
8.56835
8.57591
8.64157
8.73239
8.83432
8.9404
9.05765
9.17026
9.25229
9.33531
9.49169
9.69954
8.41198
8.34955
8.28989
8.24733
8.22322
8.19089
8.15102
8.1189
8.09996
8.09025
8.0951
8.10726
8.14992
8.20845
8.26845
8.32035
8.29915
8.2408
8.15642
8.09606
8.07179
8.06504
8.06826
8.08022
8.10779
8.14331
8.16759
8.18004
8.25148
8.38822
6.65599
6.61013
6.58335
6.58771
6.61703
6.64782
6.68069
6.72567
6.78872
6.86613
6.9574
7.05792
7.17775
7.31195
7.43532
7.55793
7.55917
7.48949
7.36025
7.2295
7.11346
7.00512
6.90669
6.8214
6.75503
6.70386
6.65597
6.60474
6.5958
6.65081
9.90163
10.8125
10.5073
9.90079
9.77956
10.2575
11.0105
11.9353
12.8376
13.6462
14.233
14.6733
14.8828
15.0585
15.0063
14.9896
14.8463
14.8278
14.7137
14.5617
14.1855
13.7033
13.0479
12.2701
11.378
10.4307
9.47952
8.77916
9.10827
9.41194
4.17121
4.53688
4.55401
4.40383
4.44505
4.68737
5.0183
5.3543
5.6416
5.85555
5.98331
6.04413
6.04468
6.02178
5.9538
5.90185
5.89855
5.93074
5.92874
5.90668
5.84144
5.74724
5.61362
5.43122
5.18564
4.86584
4.49713
4.1878
4.18322
4.19646
3.19085
3.36459
3.34171
3.22623
3.26168
3.43262
3.66997
3.91352
4.12627
4.28196
4.37076
4.39855
4.38101
4.32922
4.25152
4.18435
4.19103
4.21721
4.22407
4.20922
4.17543
4.1211
4.03957
3.91995
3.75774
3.55664
3.34522
3.19521
3.21375
3.23489
2.72707
2.80141
2.74356
2.64037
2.65188
2.76035
2.92477
3.1037
3.26917
3.39696
3.47568
3.50308
3.49331
3.4458
3.37872
3.31921
3.32426
3.33538
3.33329
3.31156
3.27876
3.23046
3.16379
3.07245
2.95961
2.83595
2.72695
2.67586
2.72889
2.76044
2.40043
2.41928
2.33836
2.23706
2.21986
2.27403
2.37396
2.49189
2.6077
2.70232
2.76543
2.79123
2.79013
2.75591
2.70778
2.6649
2.66765
2.66747
2.65715
2.63141
2.59965
2.55854
2.50853
2.44706
2.37989
2.31832
2.28215
2.29749
2.37955
2.42483
2.1516
2.13608
2.03851
1.93212
1.8869
1.8992
1.94806
2.01497
2.08581
2.14667
2.18992
2.20922
2.21155
2.18987
2.16025
2.1341
2.13598
2.13064
2.11742
2.09344
2.06715
2.03744
2.00629
1.97323
1.94395
1.9278
1.94014
2.0012
2.10457
2.1674
1.97056
1.93202
1.82086
1.70564
1.63729
1.61792
1.62991
1.65881
1.69467
1.72739
1.75171
1.76223
1.76383
1.75029
1.73442
1.72094
1.72332
1.71747
1.70588
1.6875
1.66948
1.65222
1.63825
1.6281
1.6267
1.64169
1.68751
1.77692
1.89642
1.97717
1.85365
1.79964
1.67679
1.55118
1.46423
1.42061
1.40606
1.40836
1.41921
1.43103
1.44004
1.44207
1.44075
1.43123
1.42383
1.4184
1.42194
1.41786
1.41037
1.39883
1.38957
1.3835
1.38338
1.39019
1.40917
1.44643
1.51496
1.62319
1.75521
1.85127
1.79627
1.73008
1.59692
1.46179
1.35979
1.29678
1.26211
1.24492
1.23834
1.2351
1.23253
1.2271
1.22216
1.21374
1.21075
1.20973
1.21444
1.21296
1.2103
1.20546
1.20427
1.20762
1.21852
1.23852
1.27308
1.32695
1.41365
1.53431
1.67593
1.78506
1.7939
1.73207
1.59264
1.4383
1.31511
1.23451
1.18414
1.15144
1.13165
1.11697
1.10522
1.09333
1.08454
1.07535
1.07403
1.07489
1.0805
1.08169
1.08388
1.08519
1.09143
1.10313
1.12318
1.15442
1.20241
1.26973
1.3746
1.51739
1.67075
1.7777
1.84534
1.77748
1.63448
1.46974
1.33189
1.23055
1.16087
1.11402
1.0828
1.05856
1.03876
1.02072
1.00782
0.996495
0.994975
0.995911
1.00195
1.00569
1.01259
1.0199
1.03336
1.05314
1.08138
1.124
1.18568
1.27609
1.39731
1.55204
1.71226
1.82008
1.94962
1.87287
1.71663
1.53848
1.38354
1.26594
1.18313
1.12485
1.08162
1.04716
1.01931
0.994832
0.977203
0.962566
0.95943
0.958911
0.964791
0.970907
0.98242
0.996039
1.01724
1.04562
1.08584
1.13882
1.21255
1.31624
1.45469
1.62432
1.79529
1.91703
2.10705
2.02227
1.84972
1.65239
1.47822
1.34346
1.24529
1.17324
1.11817
1.07382
1.03751
1.00608
0.982982
0.963941
0.957799
0.954095
0.958972
0.967283
0.983972
1.00416
1.03354
1.07131
1.12155
1.18722
1.27511
1.39426
1.55099
1.73988
1.93
2.06682
2.3215
2.22877
2.03791
1.81769
1.62028
1.46457
1.34794
1.25988
1.19122
1.1351
1.08884
1.04904
1.01936
0.994373
0.984227
0.975149
0.977786
0.987709
1.00962
1.03781
1.07713
1.12628
1.18934
1.26995
1.37509
1.51388
1.69296
1.90569
2.11846
2.27246
2.59964
2.49863
2.28694
2.03966
1.81435
1.63307
1.49394
1.38634
1.3009
1.23022
1.17173
1.1216
1.0838
1.05133
1.03601
1.019
1.01738
1.0283
1.05603
1.09356
1.14515
1.2085
1.28795
1.38733
1.51407
1.67742
1.88401
2.12583
2.36577
2.53998
2.9491
2.83921
2.60378
2.32502
2.0668
1.8548
1.68823
1.55642
1.44993
1.36102
1.28723
1.22419
1.17626
1.1344
1.11255
1.08478
1.07572
1.08722
1.12145
1.17012
1.23671
1.31784
1.4181
1.5413
1.69516
1.88893
2.12896
2.40578
2.67822
2.87659
3.37506
3.25566
2.99383
2.67969
2.38389
2.13598
1.93653
1.77516
1.6426
1.53107
1.43826
1.35914
1.29867
1.2452
1.21514
1.17292
1.15179
1.16334
1.20493
1.26723
1.35211
1.45522
1.58137
1.73421
1.9215
2.15216
2.43193
2.74979
3.06032
3.28722
3.87537
3.74627
3.45677
3.10506
2.76856
2.48054
2.24316
2.04694
1.88319
1.7444
1.62859
1.53007
1.45449
1.38708
1.34697
1.28541
1.24532
1.25604
1.30602
1.38513
1.49192
1.6215
1.77885
1.96721
2.19411
2.46777
2.79293
3.15695
3.51043
3.76991
4.43557
4.2977
3.98189
3.59366
3.21643
2.88657
2.60805
2.37297
2.17385
2.00376
1.8615
1.74066
1.6479
1.56461
1.5129
1.4258
1.35637
1.36497
1.42472
1.52427
1.65639
1.81641
2.00949
2.23815
2.50931
2.83008
3.20397
3.61691
4.01619
4.31099
5.02562
4.88147
4.54431
4.12522
3.71194
3.34264
3.02345
2.74845
2.51202
2.30852
2.13794
1.99334
1.88261
1.78274
1.71894
1.59908
1.48896
1.48918
1.56129
1.68532
1.84487
2.03755
2.26879
2.53978
2.85635
3.22433
3.64582
4.10636
4.55103
4.88168
5.60008
5.45368
5.10401
4.66492
4.22613
3.82566
3.47142
3.16002
2.88835
2.65267
2.4548
2.28751
2.16041
2.04551
1.97118
1.81138
1.65567
1.63484
1.72498
1.86962
2.05579
2.28004
2.54804
2.85883
3.21662
3.62571
4.08708
4.58822
5.07389
5.43829
6.10281
5.95952
5.60949
5.16572
4.71797
4.30093
3.9234
3.58482
3.28525
3.02339
2.80333
2.61805
2.47931
2.35409
2.27389
2.06706
1.86131
1.81385
1.91957
2.07852
2.2863
2.53669
2.83467
3.17667
3.56465
4.00163
4.48715
5.01554
5.53395
5.92741
6.47648
6.34232
6.00547
5.57441
5.13924
4.72543
4.34218
3.99149
3.67718
3.40055
3.16803
2.97355
2.83152
2.70442
2.62658
2.36466
2.10998
2.03645
2.14789
2.31195
2.53191
2.79821
3.11367
3.47164
3.87189
4.31709
4.80763
5.33988
5.87487
6.29661
6.67432
6.55432
6.2404
5.84533
5.44221
5.05345
4.68617
4.34291
4.03223
3.75693
3.52613
3.3352
3.20121
3.0842
3.02058
2.70088
2.40082
2.29992
2.40758
2.56606
2.78556
3.05279
3.36825
3.72313
4.11592
4.54705
5.01698
5.53035
6.05384
6.49357
6.66685
6.56746
6.29799
5.95056
5.59295
5.24907
4.9161
4.60001
4.31454
4.05959
3.84792
3.67563
3.56273
3.47021
3.43505
3.06111
2.72153
2.59043
2.68522
2.82808
3.03355
3.28453
3.5826
3.91367
4.2758
4.67399
5.11169
5.58997
6.08059
6.50687
6.43232
6.35338
6.13606
5.87002
5.58619
5.29159
5.00334
4.73103
4.48925
4.27235
4.09817
3.95978
3.88086
3.82716
3.83512
3.41624
3.04762
2.88334
2.95388
3.07087
3.24918
3.47154
3.73409
4.02154
4.34283
4.696
5.06868
5.4651
5.88494
6.28399
5.98622
5.9281
5.76652
5.56655
5.35423
5.13739
4.9254
4.72185
4.52842
4.36421
4.23975
4.14901
4.11467
4.11147
4.1751
3.73601
3.35095
3.15194
3.18373
3.26381
3.40237
3.58137
3.79509
4.03506
4.28927
4.55453
4.84468
5.16416
5.51459
5.86304
5.3499
5.30712
5.19903
5.06865
4.93354
4.797
4.66132
4.52902
4.40972
4.31112
4.24515
4.20885
4.22615
4.28588
4.40949
3.99966
3.60606
3.37178
3.34845
3.37986
3.46722
3.59183
3.74267
3.90675
4.08399
4.27222
4.47758
4.7102
4.97824
5.25647
4.55048
4.526
4.47056
4.40855
4.3486
4.28924
4.23059
4.17566
4.13166
4.10342
4.10182
4.12448
4.19483
4.32074
4.511
4.18184
3.79502
3.5275
3.43542
3.40509
3.42988
3.48357
3.56064
3.64836
3.74355
3.84966
3.97029
4.11276
4.28954
4.48555
3.65001
3.65551
3.6549
3.65661
3.66344
3.6729
3.68467
3.70094
3.726
3.76351
3.82047
3.89914
4.02387
4.21655
4.47714
4.27296
3.91597
3.61734
3.45126
3.34609
3.29657
3.27263
3.26887
3.27742
3.29294
3.31894
3.35899
3.41626
3.50008
3.60614
11.0187
11.8059
11.7214
11.2828
11.0092
11.1647
11.6553
12.4297
13.3106
14.2248
14.955
15.6147
16.0164
16.5057
16.644
16.9859
16.8112
16.7646
16.3705
15.9901
15.3176
14.6274
13.8141
12.9806
12.1328
11.3695
10.7852
10.4256
10.472
10.4347
4.34386
4.62256
4.7034
4.63541
4.63886
4.7953
5.06849
5.40513
5.74208
6.0309
6.23392
6.36732
6.42746
6.46708
6.44127
6.44912
6.42556
6.42652
6.35391
6.26007
6.1137
5.94545
5.74569
5.51358
5.24431
4.94929
4.669
4.45476
4.37684
4.3011
3.0578
3.18283
3.22505
3.20379
3.24689
3.39244
3.61572
3.87703
4.13474
4.34823
4.49437
4.56834
4.58377
4.55293
4.49177
4.43974
4.42964
4.42398
4.39039
4.33129
4.25156
4.15058
4.02508
3.86724
3.6793
3.47557
3.28697