/*--------------------------------*- C++ -*----------------------------------*\
| =========                 |                                                 |
| \\      /  F ield         | OpenFOAM: The Open Source CFD Toolbox           |
|  \\    /   O peration     | Version:  5.0                                   |
|   \\  /    A nd           | Web:      www.OpenFOAM.org                      |
|    \\/     M anipulation  |                                                 |
\*---------------------------------------------------------------------------*/
FoamFile
{
    version     2.0;
    format      ascii;
    class       volScalarField;
    location    "50/air";
    object      k;
}
// * * * * * * * * * * * * * * * * * * * * * * * * * * * * * * * * * * * * * //

dimensions      [0 2 -2 0 0 0 0];

internalField   nonuniform List<scalar> 
243000
(
0.0997148
0.0836124
0.0560233
0.0342632
0.0354524
0.0470975
0.0581422
0.0693276
0.081645
0.0921979
0.100775
0.107688
0.112963
0.117066
0.11981
0.120863
0.118652
0.11598
0.112541
0.108178
0.102377
0.0951582
0.0862748
0.0756164
0.0652789
0.0554482
0.044511
0.031729
0.0505407
0.0782149
0.157748
0.136975
0.0932617
0.0546966
0.06102
0.0814514
0.100893
0.119677
0.136768
0.151024
0.162819
0.172535
0.180245
0.186431
0.190745
0.192271
0.189479
0.185271
0.179665
0.172808
0.164268
0.154017
0.141802
0.127536
0.111182
0.0938403
0.0745808
0.0553786
0.0790787
0.128237
0.180363
0.157639
0.104689
0.0677565
0.0775461
0.0995105
0.119712
0.139067
0.157052
0.172539
0.185512
0.196287
0.204903
0.211858
0.216727
0.218381
0.215598
0.210837
0.204368
0.19651
0.186864
0.175409
0.161982
0.146668
0.129782
0.11188
0.0913729
0.071593
0.0901479
0.14667
0.19486
0.172998
0.114556
0.0822935
0.0914804
0.111379
0.130178
0.149426
0.168365
0.185081
0.199225
0.211038
0.220501
0.228153
0.233509
0.235319
0.232634
0.227428
0.220179
0.211378
0.200619
0.187918
0.173219
0.156836
0.139712
0.122668
0.103681
0.0861605
0.101938
0.159471
0.205637
0.185458
0.129883
0.0975441
0.103449
0.119633
0.136544
0.156082
0.176168
0.194146
0.209416
0.222207
0.232421
0.240665
0.246409
0.248364
0.245832
0.240326
0.232437
0.222798
0.210959
0.196997
0.180936
0.163312
0.145291
0.129261
0.113172
0.0999768
0.115791
0.170608
0.215422
0.197321
0.147233
0.11294
0.114375
0.126545
0.141836
0.162299
0.183435
0.202501
0.218686
0.232269
0.243064
0.251756
0.257774
0.259843
0.25747
0.251848
0.243505
0.233219
0.220479
0.20541
0.188086
0.169209
0.150005
0.134426
0.121442
0.113475
0.131173
0.182146
0.224957
0.209014
0.164383
0.128276
0.12524
0.133894
0.148448
0.169789
0.191592
0.211398
0.228209
0.242356
0.253557
0.262567
0.268769
0.270927
0.268698
0.263115
0.254489
0.243769
0.230368
0.214444
0.196097
0.176387
0.156828
0.140644
0.129764
0.126836
0.148176
0.193981
0.234652
0.22072
0.180855
0.144279
0.137046
0.142939
0.157502
0.1793
0.201275
0.221402
0.238551
0.253061
0.264546
0.273802
0.280134
0.282384
0.28027
0.274822
0.266058
0.255086
0.241248
0.22473
0.205649
0.185505
0.166036
0.149104
0.139592
0.140811
0.166678
0.206153
0.244852
0.23271
0.196975
0.162679
0.150941
0.154631
0.169547
0.191006
0.212759
0.232819
0.250052
0.26478
0.276497
0.286005
0.292458
0.294832
0.292823
0.287495
0.278749
0.267657
0.253554
0.236671
0.217126
0.196891
0.177927
0.161568
0.152825
0.157472
0.184571
0.218761
0.255919
0.245314
0.213165
0.183106
0.167883
0.169538
0.18412
0.204921
0.226187
0.245874
0.262999
0.277849
0.289809
0.299659
0.306277
0.308839
0.306928
0.301725
0.292981
0.281937
0.267689
0.250636
0.230836
0.210704
0.192452
0.17781
0.171403
0.179248
0.202852
0.232139
0.268278
0.259091
0.230101
0.20321
0.188097
0.187792
0.20115
0.221089
0.241691
0.260857
0.277739
0.292694
0.304976
0.315317
0.322166
0.325017
0.3232
0.318149
0.309358
0.298338
0.284151
0.26708
0.24713
0.227074
0.209495
0.196425
0.19271
0.201104
0.221609
0.246627
0.282436
0.274502
0.248303
0.223882
0.209655
0.208238
0.220388
0.239428
0.259421
0.278208
0.294926
0.310091
0.322755
0.333765
0.34089
0.344032
0.342334
0.337478
0.328743
0.317823
0.303618
0.286672
0.266599
0.246339
0.229101
0.217161
0.214883
0.223239
0.241317
0.262836
0.299056
0.292131
0.268365
0.245824
0.232374
0.230599
0.242007
0.260431
0.280167
0.298945
0.315641
0.33084
0.343539
0.354731
0.361939
0.365303
0.363775
0.359171
0.350711
0.340251
0.326578
0.310197
0.29045
0.269406
0.25179
0.240249
0.238558
0.246544
0.262679
0.281398
0.319095
0.31286
0.291164
0.269945
0.257216
0.255632
0.267031
0.285655
0.305148
0.323375
0.339506
0.354179
0.366565
0.37765
0.384828
0.388397
0.387094
0.382835
0.374794
0.365039
0.352288
0.336902
0.318441
0.297786
0.279216
0.266691
0.264737
0.27207
0.286696
0.303225
0.344206
0.338206
0.318301
0.29805
0.28639
0.285795
0.297414
0.314906
0.333051
0.350184
0.36546
0.37934
0.391225
0.402063
0.409145
0.412917
0.411902
0.408078
0.400549
0.391653
0.380034
0.365815
0.348954
0.329781
0.311981
0.299188
0.29577
0.301804
0.315216
0.330044
0.375311
0.369067
0.350602
0.331541
0.320718
0.320257
0.330698
0.346241
0.36253
0.378202
0.392411
0.405402
0.416734
0.427306
0.434303
0.438309
0.437639
0.43431
0.42732
0.419322
0.408875
0.395847
0.380629
0.363648
0.347446
0.335542
0.332019
0.337368
0.349785
0.363295
0.409118
0.402155
0.384648
0.366789
0.356676
0.356008
0.364702
0.377886
0.39211
0.406177
0.419174
0.431263
0.442088
0.452492
0.4595
0.463827
0.463551
0.460705
0.45418
0.447001
0.437623
0.425784
0.412176
0.397571
0.383435
0.372978
0.369881
0.374929
0.386633
0.39927
0.442573
0.4347
0.417909
0.401292
0.391814
0.390688
0.397281
0.40794
0.420049
0.432574
0.444408
0.455727
0.466195
0.476647
0.483838
0.488613
0.488763
0.486291
0.480041
0.473465
0.464926
0.454208
0.442027
0.4296
0.417755
0.409132
0.40681
0.411738
0.422919
0.434912
0.472771
0.464041
0.447928
0.432621
0.423689
0.421834
0.426145
0.434298
0.444395
0.455569
0.466597
0.477558
0.48806
0.498945
0.506569
0.511939
0.512508
0.510192
0.503856
0.497482
0.489338
0.479367
0.468257
0.457664
0.448124
0.44155
0.440294
0.445185
0.45591
0.46737
0.496957
0.487452
0.472102
0.458087
0.449566
0.446754
0.448794
0.454748
0.463307
0.473631
0.484486
0.495795
0.507044
0.518988
0.527405
0.533527
0.534472
0.531949
0.524921
0.518029
0.50951
0.499559
0.489025
0.479677
0.472144
0.467635
0.467613
0.472561
0.482763
0.493657
0.512421
0.502265
0.487607
0.474725
0.466303
0.462394
0.462816
0.467531
0.475755
0.48642
0.498191
0.510801
0.523736
0.537494
0.5471
0.554053
0.555275
0.552026
0.543441
0.535016
0.525109
0.514145
0.503218
0.494048
0.487617
0.484744
0.485944
0.491084
0.500705
0.510966
0.51708
0.506186
0.491757
0.479333
0.470865
0.466698
0.467133
0.473013
0.483443
0.49655
0.510802
0.525852
0.54148
0.557645
0.568711
0.576248
0.5775
0.572934
0.56181
0.550669
0.538136
0.524723
0.511663
0.500786
0.493435
0.49065
0.492671
0.498055
0.507207
0.517106
0.50973
0.497937
0.483001
0.471037
0.464534
0.462709
0.467008
0.478881
0.495471
0.513264
0.53121
0.549265
0.568001
0.586407
0.598637
0.605798
0.606491
0.599997
0.585596
0.570762
0.55455
0.537253
0.519932
0.504378
0.492251
0.485664
0.486353
0.492012
0.500996
0.510584
0.493043
0.480995
0.466017
0.46171
0.465116
0.474003
0.488983
0.507495
0.527589
0.547826
0.567782
0.587727
0.608618
0.629196
0.64256
0.650211
0.650892
0.642404
0.624852
0.606359
0.58667
0.565531
0.543444
0.52133
0.500381
0.482481
0.474679
0.477179
0.484298
0.492947
0.492329
0.489581
0.486553
0.489971
0.500566
0.516167
0.534678
0.554586
0.574953
0.595204
0.615343
0.635877
0.657823
0.679881
0.693868
0.70217
0.703493
0.694986
0.676422
0.656863
0.636419
0.614673
0.591777
0.568289
0.544908
0.522644
0.50438
0.493221
0.488647
0.48844
0.540319
0.542398
0.546553
0.554594
0.566524
0.581035
0.597291
0.614429
0.632034
0.649988
0.668478
0.688112
0.709917
0.732623
0.746677
0.755658
0.758072
0.750522
0.732203
0.713158
0.693825
0.673753
0.652953
0.63178
0.610678
0.590141
0.571224
0.554953
0.543376
0.537063
0.616993
0.620883
0.626813
0.634285
0.643093
0.653054
0.664221
0.67639
0.689531
0.703782
0.719417
0.73708
0.757775
0.780347
0.794021
0.803738
0.807605
0.801563
0.784369
0.766931
0.749978
0.733055
0.716095
0.699298
0.682925
0.667112
0.652122
0.637862
0.6252
0.616206
0.699612
0.702056
0.705421
0.708952
0.712746
0.717208
0.722782
0.729647
0.738052
0.748274
0.760641
0.775834
0.794742
0.816508
0.82963
0.840082
0.845622
0.841295
0.825797
0.810674
0.796805
0.783656
0.771096
0.759199
0.748096
0.737722
0.727942
0.718321
0.708913
0.700814
0.770038
0.769281
0.768315
0.767058
0.765865
0.765346
0.766009
0.768217
0.77238
0.778869
0.788046
0.8006
0.817132
0.837592
0.850103
0.861141
0.868417
0.86573
0.852323
0.840057
0.829601
0.820316
0.812015
0.804678
0.798323
0.792804
0.787806
0.782854
0.777716
0.772406
0.820612
0.81636
0.811351
0.805978
0.800721
0.79624
0.792998
0.791401
0.791976
0.795177
0.801407
0.811145
0.825087
0.843516
0.855405
0.866835
0.875653
0.874532
0.863355
0.854499
0.84756
0.841956
0.837505
0.83411
0.831674
0.830006
0.82874
0.827457
0.825919
0.823607
0.124205
0.126208
0.10173
0.0765884
0.0695832
0.0832096
0.094046
0.101263
0.106851
0.111007
0.113641
0.115243
0.115837
0.115957
0.115774
0.115227
0.114116
0.11376
0.114035
0.11426
0.113804
0.112608
0.110177
0.106355
0.100966
0.0916265
0.0765785
0.0652607
0.0879701
0.115155
0.226128
0.243876
0.210202
0.166199
0.16018
0.176683
0.189229
0.196395
0.200392
0.202522
0.203608
0.204238
0.20434
0.204707
0.204989
0.205266
0.205133
0.205106
0.205019
0.204893
0.204297
0.203691
0.202744
0.20085
0.196629
0.187028
0.168074
0.151038
0.186427
0.22593
0.278157
0.295824
0.26418
0.223604
0.219161
0.233769
0.245368
0.252657
0.256469
0.258433
0.258743
0.258354
0.257415
0.256786
0.256032
0.255909
0.256599
0.258013
0.259181
0.260022
0.260302
0.260344
0.259635
0.257816
0.253453
0.244285
0.227201
0.212407
0.243992
0.278996
0.311762
0.326586
0.301174
0.268663
0.262029
0.271635
0.281026
0.287731
0.292438
0.295195
0.295784
0.295081
0.293893
0.292862
0.291706
0.29132
0.292405
0.294444
0.296079
0.297181
0.297724
0.297415
0.295612
0.292271
0.287551
0.279694
0.267952
0.261895
0.288314
0.312363
0.337657
0.349475
0.330487
0.305233
0.295426
0.299218
0.305442
0.311633
0.317196
0.321035
0.322581
0.322436
0.321821
0.321094
0.320032
0.319694
0.320737
0.322672
0.324018
0.324567
0.324488
0.323041
0.319624
0.314534
0.30922
0.303798
0.298947
0.302094
0.323798
0.337727
0.359543
0.369093
0.355166
0.33399
0.322183
0.320939
0.324719
0.330588
0.336757
0.341655
0.344424
0.345283
0.345632
0.345583
0.344961
0.344704
0.345463
0.346804
0.34744
0.347028
0.345921
0.343064
0.338092
0.331581
0.325768
0.322726
0.32403
0.333828
0.351406
0.358981
0.379575
0.387532
0.376945
0.357421
0.344067
0.340151
0.342792
0.348709
0.355378
0.361305
0.365467
0.367623
0.369063
0.369823
0.369748
0.369448
0.369732
0.370182
0.369947
0.368483
0.366202
0.361902
0.355596
0.348051
0.341795
0.340067
0.344802
0.357956
0.373409
0.378044
0.399656
0.406558
0.398086
0.379422
0.364619
0.359753
0.362109
0.368558
0.375883
0.382912
0.388643
0.392534
0.395193
0.39684
0.397404
0.396843
0.396431
0.395709
0.394445
0.391986
0.388363
0.382594
0.375124
0.366782
0.360012
0.358491
0.36434
0.378734
0.393198
0.396955
0.421657
0.428008
0.421046
0.40353
0.387419
0.382394
0.385103
0.392131
0.400251
0.408479
0.415913
0.422061
0.426562
0.428888
0.429726
0.428863
0.428082
0.426111
0.423482
0.41989
0.414525
0.407243
0.398711
0.389635
0.38229
0.380529
0.386538
0.400746
0.414267
0.417846
0.447443
0.453745
0.448228
0.43241
0.415568
0.410561
0.41384
0.421307
0.430178
0.439401
0.448332
0.456062
0.461563
0.464855
0.466214
0.46545
0.464628
0.462195
0.458747
0.453215
0.446117
0.437466
0.428135
0.418556
0.410807
0.40889
0.414677
0.427588
0.439581
0.442842
0.478874
0.485598
0.481735
0.468137
0.453059
0.447481
0.45027
0.457813
0.467077
0.476808
0.486355
0.494668
0.500356
0.503811
0.505295
0.50447
0.503658
0.500956
0.497251
0.491421
0.483733
0.474366
0.464761
0.455134
0.447375
0.445341
0.450351
0.461359
0.471276
0.473985
0.517771
0.525344
0.523265
0.512185
0.499213
0.493467
0.495615
0.502696
0.511744
0.52116
0.530326
0.538239
0.543352
0.546245
0.547436
0.546326
0.545488
0.542697
0.539277
0.534117
0.527056
0.518176
0.509207
0.500299
0.492992
0.490855
0.494927
0.50364
0.511116
0.513061
0.565679
0.574322
0.574007
0.565125
0.55395
0.548423
0.55003
0.55603
0.564031
0.572182
0.580116
0.586859
0.590832
0.592737
0.593365
0.591817
0.590911
0.58824
0.585513
0.581582
0.575964
0.568346
0.561067
0.553841
0.547726
0.545811
0.549012
0.555488
0.560513
0.561485
0.623276
0.632889
0.634078
0.626655
0.616392
0.611203
0.612336
0.616606
0.622776
0.629195
0.635762
0.640835
0.643222
0.643761
0.643594
0.641494
0.640512
0.638226
0.636539
0.634285
0.630681
0.624495
0.619362
0.614257
0.61014
0.609144
0.611929
0.616704
0.619761
0.619836
0.689276
0.699441
0.701206
0.693639
0.684045
0.679172
0.67969
0.682753
0.686893
0.691428
0.69683
0.699831
0.700243
0.699103
0.697938
0.695221
0.694212
0.692648
0.692317
0.692091
0.690747
0.685695
0.682774
0.680024
0.677908
0.677833
0.680369
0.68486
0.686925
0.686551
0.760463
0.770391
0.770939
0.762456
0.753875
0.749592
0.749787
0.752308
0.754646
0.757464
0.76182
0.762653
0.760872
0.757734
0.75537
0.751967
0.750967
0.750486
0.751811
0.753829
0.754604
0.750348
0.749242
0.74882
0.748418
0.748396
0.750533
0.754719
0.757743
0.75791
0.833242
0.841344
0.838907
0.83066
0.82329
0.81965
0.819477
0.821257
0.823261
0.825101
0.828374
0.827296
0.823211
0.817893
0.814191
0.809962
0.808944
0.809683
0.812855
0.817232
0.81972
0.816248
0.81614
0.817281
0.817312
0.817662
0.819542
0.82343
0.827387
0.829806
0.901323
0.905958
0.902253
0.894991
0.888882
0.885774
0.885148
0.886096
0.888169
0.890984
0.893308
0.890893
0.884664
0.877275
0.872223
0.867042
0.865905
0.867706
0.872679
0.879246
0.882791
0.880441
0.879829
0.880501
0.881026
0.882
0.883935
0.887705
0.892298
0.896367
0.959036
0.961269
0.957587
0.951652
0.946759
0.944043
0.942992
0.943272
0.945128
0.948976
0.951982
0.949631
0.942046
0.933191
0.927061
0.920956
0.919527
0.921965
0.928208
0.936248
0.939801
0.937548
0.934842
0.934969
0.935989
0.93764
0.939964
0.943794
0.948929
0.95408
1.00395
1.00453
1.00144
0.996963
0.993233
0.99091
0.989697
0.989713
0.991884
0.996129
0.999423
0.998023
0.991051
0.982209
0.976001
0.969447
0.967569
0.969826
0.975942
0.983564
0.985427
0.982391
0.978688
0.978121
0.979328
0.981417
0.984166
0.988099
0.993595
0.999483
1.03397
1.03372
1.03148
1.02849
1.02595
1.02428
1.0235
1.02401
1.0273
1.03219
1.03614
1.03575
1.02978
1.02198
1.01591
1.00942
1.00711
1.00837
1.01345
1.01952
1.02002
1.01608
1.0116
1.00947
1.01001
1.01184
1.01461
1.01844
1.02395
1.03017
1.04963
1.0492
1.04793
1.04637
1.04515
1.04465
1.04522
1.04769
1.05285
1.05954
1.06538
1.0671
1.06403
1.05906
1.05438
1.04901
1.04639
1.04639
1.04883
1.05166
1.04932
1.04298
1.03667
1.03208
1.03013
1.03042
1.03237
1.03555
1.04049
1.04656
1.05498
1.05473
1.05441
1.05407
1.05427
1.05561
1.05897
1.06447
1.07301
1.08331
1.09295
1.09877
1.10092
1.10104
1.09904
1.09623
1.09406
1.09185
1.09021
1.08826
1.08128
1.07044
1.06045
1.05184
1.04541
1.04231
1.04218
1.04384
1.04745
1.05272
1.05681
1.0568
1.05724
1.05797
1.05995
1.06415
1.07121
1.08118
1.09515
1.11108
1.12657
1.13802
1.14748
1.15605
1.16046
1.16171
1.15967
1.15491
1.1473
1.13813
1.12318
1.10536
1.09027
1.07575
1.06361
1.0553
1.0514
1.05042
1.05194
1.05549
1.06251
1.06281
1.0638
1.06653
1.0717
1.08009
1.09211
1.10771
1.12779
1.15008
1.17247
1.19263
1.21007
1.22566
1.23549
1.24056
1.23873
1.2313
1.21796
1.20259
1.18151
1.15705
1.13287
1.11058
1.09152
1.07683
1.06765
1.06283
1.06142
1.06237
1.08019
1.08235
1.08505
1.08972
1.09785
1.10991
1.12636
1.14713
1.17225
1.20007
1.22853
1.25536
1.27976
1.30246
1.31744
1.32612
1.32485
1.31528
1.29703
1.27652
1.24999
1.21951
1.18857
1.15975
1.13483
1.11465
1.09974
1.09002
1.08403
1.08076
1.11618
1.11919
1.1223
1.12809
1.13786
1.15199
1.17094
1.19466
1.2229
1.2543
1.28674
1.31778
1.34732
1.37568
1.39477
1.40692
1.40681
1.39608
1.3745
1.35048
1.32066
1.28608
1.25078
1.21778
1.18905
1.1653
1.14657
1.13307
1.12416
1.11742
1.16542
1.16736
1.1706
1.17641
1.18599
1.19992
1.21863
1.24224
1.27067
1.30258
1.33592
1.36846
1.40058
1.43228
1.45405
1.46964
1.47143
1.46084
1.43794
1.4124
1.38218
1.34665
1.30999
1.27574
1.24612
1.22153
1.20134
1.18596
1.17503
1.16724
1.22083
1.22205
1.22402
1.22792
1.23485
1.24575
1.26094
1.28114
1.30657
1.33562
1.3665
1.39827
1.4304
1.46278
1.48534
1.50258
1.50618
1.49749
1.47663
1.4529
1.42532
1.39363
1.35936
1.3274
1.30012
1.27764
1.25843
1.24301
1.23166
1.22317
1.27903
1.27805
1.27687
1.27654
1.27831
1.28335
1.29146
1.30447
1.32301
1.34623
1.37283
1.40134
1.43097
1.461
1.48238
1.49925
1.50474
1.49956
1.48336
1.46471
1.44367
1.41868
1.39126
1.36603
1.3448
1.32778
1.3123
1.29883
1.2887
1.28156
0.136099
0.141353
0.128104
0.112453
0.108226
0.115308
0.12313
0.129381
0.133709
0.136388
0.137477
0.137671
0.1369
0.136183
0.135081
0.134608
0.134365
0.135401
0.136884
0.138569
0.139372
0.139488
0.138205
0.135235
0.129838
0.121292
0.110031
0.101894
0.115152
0.130543
0.258777
0.276979
0.266694
0.24992
0.24483
0.250021
0.254367
0.257189
0.258447
0.258593
0.257579
0.25639
0.255019
0.254819
0.254582
0.255599
0.256935
0.258733
0.259577
0.260558
0.261053
0.261899
0.26251
0.262687
0.26152
0.257274
0.245417
0.234697
0.24983
0.261503
0.323493
0.341535
0.332972
0.317227
0.310685
0.312933
0.316545
0.319795
0.322085
0.323146
0.322637
0.32158
0.320286
0.319941
0.319373
0.320026
0.32196
0.324414
0.325415
0.325996
0.326014
0.3262
0.326043
0.325335
0.323699
0.32031
0.313592
0.30841
0.319374
0.327004
0.365594
0.381018
0.374673
0.360931
0.35312
0.352292
0.35414
0.356889
0.359565
0.361368
0.361685
0.36126
0.360553
0.360495
0.360066
0.360701
0.362815
0.365242
0.365878
0.365702
0.364865
0.364025
0.362846
0.361372
0.359903
0.358444
0.356682
0.357657
0.366126
0.369035
0.39573
0.408201
0.403487
0.391577
0.382703
0.379212
0.378917
0.380488
0.382757
0.384689
0.385585
0.385835
0.385859
0.386369
0.386431
0.387337
0.38944
0.391494
0.391531
0.390491
0.388787
0.387059
0.38524
0.383627
0.38302
0.383923
0.386531
0.391878
0.399177
0.398988
0.41874
0.428511
0.424501
0.413583
0.40393
0.398518
0.396543
0.396799
0.398254
0.399848
0.400904
0.401577
0.402189
0.403237
0.403922
0.405217
0.407238
0.408854
0.408346
0.406637
0.404338
0.402117
0.400164
0.398912
0.399341
0.402162
0.407752
0.415813
0.422757
0.421563
0.43778
0.445127
0.441028
0.430311
0.42007
0.413498
0.410405
0.40967
0.410287
0.411372
0.412314
0.413123
0.414055
0.415429
0.416655
0.418296
0.420236
0.421496
0.420675
0.418618
0.416074
0.41374
0.411968
0.41123
0.41244
0.416476
0.42373
0.433229
0.440385
0.439824
0.455235
0.4604
0.455707
0.444673
0.433905
0.426651
0.42288
0.421499
0.421482
0.4221
0.422833
0.423583
0.424578
0.426003
0.427565
0.429435
0.431318
0.432346
0.431467
0.429376
0.426884
0.424676
0.423207
0.422908
0.424606
0.429275
0.437311
0.447531
0.455311
0.45614
0.473062
0.476355
0.470843
0.459193
0.447812
0.440027
0.435794
0.433972
0.433542
0.433809
0.434329
0.434908
0.435743
0.436941
0.438576
0.440547
0.442425
0.443351
0.442638
0.440759
0.438534
0.43659
0.43545
0.435481
0.437492
0.442506
0.450955
0.461682
0.470297
0.472649
0.492934
0.494794
0.488373
0.475959
0.463827
0.455391
0.450687
0.448488
0.447746
0.447747
0.448047
0.448311
0.448763
0.449466
0.450895
0.452856
0.454787
0.455779
0.455449
0.453991
0.452204
0.450616
0.449842
0.450189
0.452502
0.457864
0.466763
0.478036
0.487532
0.491304
0.51632
0.517144
0.5098
0.496522
0.483558
0.474298
0.468962
0.466319
0.465248
0.464962
0.464941
0.464675
0.464486
0.464395
0.4653
0.467112
0.469151
0.470416
0.470698
0.469933
0.468818
0.467727
0.467412
0.468175
0.470929
0.476795
0.486279
0.498204
0.508597
0.513632
0.544584
0.544685
0.536411
0.522209
0.508274
0.49804
0.491918
0.488694
0.487173
0.486441
0.485912
0.484855
0.483741
0.482473
0.482423
0.483837
0.486008
0.487801
0.488986
0.48926
0.489159
0.488834
0.489154
0.490533
0.493918
0.500483
0.510753
0.523469
0.534776
0.540987
0.579045
0.578611
0.569415
0.554245
0.539243
0.52792
0.520838
0.516823
0.514621
0.513189
0.51191
0.509875
0.50753
0.504624
0.50335
0.503463
0.505772
0.50837
0.510866
0.512596
0.51395
0.514763
0.516038
0.518338
0.522635
0.530107
0.541328
0.554968
0.567248
0.574599
0.620928
0.620054
0.609963
0.59379
0.577652
0.565165
0.556956
0.551891
0.548703
0.546261
0.543987
0.541053
0.538092
0.533785
0.530777
0.528117
0.529802
0.532621
0.536932
0.540599
0.54394
0.546346
0.549017
0.552628
0.558173
0.566779
0.579096
0.593792
0.607137
0.61563
0.671266
0.669994
0.659009
0.641801
0.624527
0.610848
0.601378
0.595001
0.590478
0.586676
0.583101
0.579001
0.575115
0.570077
0.566158
0.560377
0.560785
0.562664
0.568017
0.574003
0.579844
0.584357
0.588944
0.594325
0.60149
0.611472
0.624989
0.640863
0.655391
0.665068
0.730705
0.729016
0.717107
0.698905
0.680598
0.665769
0.654947
0.64701
0.640809
0.635278
0.630018
0.624342
0.619113
0.612845
0.608116
0.600357
0.599312
0.600805
0.606933
0.6142
0.622268
0.62937
0.636411
0.644065
0.653238
0.664835
0.679626
0.696745
0.712585
0.72354
0.799146
0.796971
0.784157
0.765159
0.746036
0.73018
0.717947
0.708271
0.700124
0.692533
0.685177
0.677467
0.670404
0.662282
0.656022
0.645497
0.642391
0.643814
0.651215
0.660472
0.671274
0.681487
0.691523
0.701908
0.713436
0.726893
0.743045
0.761404
0.778619
0.790952
0.875216
0.872531
0.859048
0.839614
0.820044
0.803382
0.789794
0.778325
0.768099
0.758222
0.748453
0.738341
0.728973
0.718316
0.709751
0.694994
0.689047
0.690443
0.699827
0.711887
0.726114
0.740036
0.753578
0.767048
0.781175
0.796682
0.814266
0.833785
0.852305
0.866004
0.95599
0.952941
0.939257
0.919951
0.900475
0.883376
0.868688
0.855576
0.843328
0.831124
0.818868
0.806179
0.794186
0.780425
0.76883
0.748178
0.739163
0.740465
0.751707
0.767208
0.785374
0.803396
0.820796
0.837562
0.854347
0.871903
0.890879
0.911376
0.931004
0.945933
1.03697
1.03383
1.02062
1.00225
0.98361
0.966658
0.951425
0.937106
0.923151
0.908887
0.894403
0.879281
0.864609
0.847442
0.832346
0.804817
0.792956
0.793863
0.806516
0.824989
0.847077
0.869098
0.89036
0.910337
0.929524
0.948786
0.968855
0.989981
1.01035
1.02629
1.11221
1.10937
1.0975
1.08112
1.06428
1.0484
1.03348
1.01872
1.00377
0.988142
0.972102
0.955061
0.938043
0.917616
0.898974
0.86475
0.850623
0.850854
0.864055
0.883905
0.909115
0.934333
0.958776
0.981338
1.00224
1.02238
1.04281
1.06392
1.08447
1.10111
1.17511
1.17315
1.16368
1.15047
1.13659
1.12301
1.10954
1.09546
1.08066
1.06487
1.04837
1.03037
1.01181
0.988866
0.967286
0.928086
0.912777
0.912208
0.924467
0.943577
0.969833
0.996593
1.02266
1.04639
1.06772
1.08745
1.10695
1.127
1.1469
1.16375
1.22013
1.21981
1.21379
1.20489
1.19521
1.18521
1.17443
1.16242
1.1493
1.13489
1.11938
1.10174
1.08294
1.05905
1.03611
0.996064
0.981222
0.979724
0.98892
1.00452
1.02857
1.05435
1.07966
1.10231
1.12217
1.13977
1.15663
1.17419
1.19235
1.20875
1.24476
1.24681
1.24493
1.2411
1.23645
1.2309
1.224
1.21553
1.20571
1.19432
1.18144
1.16586
1.14851
1.12592
1.10424
1.07127
1.05927
1.05658
1.06003
1.06839
1.08635
1.10759
1.1291
1.14781
1.16383
1.17732
1.18954
1.20325
1.21849
1.23383
1.25031
1.25485
1.25708
1.25828
1.25871
1.25803
1.25585
1.25203
1.24682
1.23987
1.23116
1.21934
1.20532
1.18664
1.16931
1.14904
1.13775
1.13303
1.13322
1.13695
1.14587
1.15669
1.17107
1.18311
1.19307
1.20021
1.2061
1.21443
1.22621
1.24064
1.23978
1.24647
1.25206
1.25717
1.26193
1.26609
1.26889
1.27015
1.2702
1.2686
1.26518
1.25841
1.24951
1.23721
1.22771
1.21413
1.20343
1.19677
1.19343
1.1929
1.1958
1.1995
1.20441
1.20817
1.21088
1.21182
1.21002
1.21252
1.21965
1.23134
1.2161
1.22385
1.23165
1.2392
1.24715
1.25553
1.26239
1.2684
1.27368
1.27767
1.28006
1.27914
1.27655
1.27184
1.26949
1.26221
1.2528
1.24465
1.23776
1.2326
1.22986
1.2271
1.22424
1.22059
1.21639
1.2114
1.20418
1.19921
1.20124
1.20958
1.1795
1.18637
1.19523
1.20439
1.21489
1.22594
1.23582
1.24561
1.25542
1.26454
1.27247
1.2777
1.28183
1.28486
1.28944
1.2892
1.28239
1.27353
1.26319
1.25334
1.24474
1.2358
1.22644
1.21679
1.20718
1.1973
1.18625
1.17581
1.17182
1.17526
1.13097
1.13564
1.14352
1.15398
1.16643
1.17832
1.18981
1.20194
1.21497
1.22817
1.24095
1.25205
1.26272
1.27323
1.28488
1.29294
1.28997
1.28151
1.26823
1.2538
1.23951
1.22479
1.20986
1.19513
1.18121
1.16787
1.15413
1.13974
1.13058
1.12912
1.07473
1.07722
1.08334
1.09287
1.10467
1.11635
1.12809
1.14087
1.15537
1.17103
1.18728
1.2033
1.2198
1.23759
1.25679
1.27433
1.27648
1.26953
1.25407
1.23546
1.21588
1.19564
1.17571
1.15676
1.13943
1.12352
1.10789
1.0918
1.07988
1.07512
0.149174
0.154584
0.148128
0.139137
0.134652
0.135813
0.139285
0.144049
0.148518
0.152269
0.154511
0.155984
0.156192
0.156623
0.155871
0.155875
0.155348
0.156121
0.156597
0.157204
0.156518
0.155324
0.15299
0.14974
0.145445
0.140386
0.134807
0.131219
0.13773
0.144245
0.284611
0.297812
0.296192
0.287917
0.281131
0.27859
0.278326
0.279818
0.281758
0.283672
0.284569
0.285487
0.285885
0.287768
0.288663
0.290803
0.291827
0.293111
0.292204
0.291304
0.289453
0.288195
0.287037
0.286355
0.285859
0.285153
0.283054
0.280948
0.284231
0.285154
0.351834
0.36362
0.36205
0.353415
0.345529
0.341714
0.340701
0.34201
0.344338
0.346823
0.348319
0.349582
0.350382
0.352313
0.353291
0.355043
0.356468
0.357831
0.356711
0.355041
0.352605
0.350719
0.349085
0.348074
0.347776
0.348228
0.348733
0.349776
0.352967
0.352651
0.392995
0.401973
0.400282
0.3922
0.383957
0.37894
0.376823
0.37719
0.379054
0.381425
0.383169
0.384709
0.385968
0.388043
0.389359
0.391088
0.392693
0.393773
0.392286
0.389965
0.387056
0.38471
0.382913
0.382132
0.382707
0.384813
0.38795
0.391674
0.394986
0.39368
0.419962
0.426352
0.424482
0.41703
0.408648
0.402536
0.399122
0.398111
0.398808
0.400366
0.401799
0.403289
0.404826
0.407091
0.408923
0.410971
0.412691
0.41348
0.41172
0.40904
0.405955
0.40356
0.402113
0.402137
0.40396
0.407796
0.413099
0.418672
0.422217
0.420646
0.438413
0.442745
0.440496
0.433327
0.424831
0.417883
0.413312
0.410979
0.410327
0.410737
0.411453
0.412541
0.414053
0.416375
0.41871
0.421197
0.423029
0.423668
0.421906
0.419248
0.416368
0.414342
0.413615
0.414599
0.41762
0.422821
0.429558
0.436243
0.440161
0.439089
0.452092
0.454791
0.451953
0.444675
0.435996
0.428464
0.423025
0.41963
0.417837
0.417141
0.41701
0.417489
0.418718
0.420898
0.423574
0.426427
0.42837
0.429014
0.427536
0.425217
0.422836
0.421431
0.421501
0.423329
0.427261
0.433354
0.440914
0.448258
0.452684
0.45258
0.463668
0.465019
0.461426
0.453723
0.444741
0.436767
0.430712
0.426554
0.423896
0.422308
0.421417
0.421239
0.42203
0.423887
0.426711
0.429764
0.431792
0.432548
0.431547
0.429759
0.428041
0.427346
0.4281
0.430597
0.435148
0.441781
0.449817
0.45764
0.462752
0.463717
0.475066
0.475278
0.470794
0.46242
0.452979
0.444582
0.438054
0.433343
0.430055
0.427781
0.426246
0.425463
0.425746
0.427136
0.429952
0.433022
0.435087
0.436011
0.435588
0.434429
0.433443
0.433434
0.434779
0.437797
0.442789
0.449795
0.4582
0.466523
0.472468
0.47454
0.487675
0.486979
0.481452
0.472199
0.462112
0.45322
0.446243
0.441074
0.437289
0.434456
0.432362
0.430999
0.430765
0.431578
0.434234
0.43715
0.439211
0.440331
0.440524
0.440056
0.439843
0.44048
0.442391
0.445874
0.451257
0.458625
0.467472
0.476441
0.483355
0.486571
0.50263
0.501173
0.49452
0.48419
0.473237
0.463697
0.456205
0.450567
0.446316
0.442952
0.440309
0.438339
0.437561
0.437715
0.440049
0.442644
0.444645
0.445981
0.446823
0.447104
0.447706
0.449048
0.451569
0.455558
0.461395
0.469241
0.478715
0.488561
0.496582
0.500938
0.520832
0.518675
0.510844
0.499293
0.487274
0.47687
0.468721
0.462521
0.457738
0.453784
0.450529
0.447866
0.44646
0.445877
0.447714
0.449786
0.45164
0.453192
0.454745
0.45585
0.457393
0.459571
0.462834
0.467464
0.473915
0.482467
0.492815
0.50375
0.51301
0.518528
0.543081
0.54024
0.531147
0.518211
0.504921
0.493467
0.484485
0.477573
0.472106
0.467429
0.463438
0.459954
0.457802
0.456351
0.45751
0.458773
0.460332
0.462082
0.464424
0.466496
0.469172
0.472391
0.476619
0.482117
0.489417
0.498905
0.510389
0.52266
0.533345
0.540121
0.570151
0.566644
0.556198
0.541704
0.526935
0.514217
0.504178
0.49633
0.489971
0.48438
0.47948
0.475028
0.471998
0.4695
0.46978
0.469836
0.470831
0.472722
0.475944
0.479192
0.483256
0.487796
0.493284
0.499965
0.508429
0.519157
0.532071
0.545959
0.558305
0.56646
0.602815
0.598657
0.586771
0.57055
0.55409
0.539868
0.528512
0.519454
0.511927
0.505167
0.499135
0.49353
0.489455
0.485705
0.484935
0.483268
0.483275
0.485211
0.489388
0.494065
0.499847
0.50607
0.513211
0.521475
0.531503
0.543844
0.558525
0.57434
0.5886
0.598292
0.641761
0.636966
0.623558
0.605454
0.587106
0.571137
0.55818
0.547589
0.538568
0.530333
0.522897
0.515907
0.51058
0.505346
0.503337
0.499393
0.49775
0.499675
0.504884
0.511262
0.519121
0.527454
0.536712
0.547048
0.559112
0.573503
0.59033
0.608407
0.624861
0.636284
0.687386
0.681973
0.666987
0.646899
0.626507
0.608578
0.593731
0.581276
0.570412
0.560377
0.551238
0.542592
0.535778
0.528808
0.525307
0.518407
0.514212
0.516074
0.522416
0.530848
0.541179
0.552088
0.563976
0.576914
0.591538
0.608453
0.627826
0.648506
0.667446
0.68082
0.739452
0.733456
0.716923
0.694855
0.672381
0.652361
0.635393
0.620788
0.607771
0.595633
0.584518
0.573969
0.565444
0.556476
0.551179
0.540436
0.532414
0.534154
0.541784
0.552733
0.565959
0.579918
0.594941
0.610992
0.628674
0.648563
0.670854
0.694435
0.716126
0.731663
0.796668
0.79019
0.772291
0.748444
0.724038
0.70197
0.682805
0.665898
0.65055
0.636119
0.62286
0.610255
0.599884
0.588718
0.581317
0.565576
0.55185
0.55343
0.562626
0.576676
0.59319
0.61059
0.629146
0.648701
0.669802
0.692973
0.718426
0.745086
0.769697
0.787563
0.856383
0.849618
0.830746
0.805602
0.779714
0.755909
0.734755
0.715656
0.698024
0.681338
0.665981
0.651378
0.639198
0.625782
0.616066
0.594
0.572639
0.573088
0.584448
0.602368
0.622387
0.643391
0.665638
0.688816
0.713394
0.739864
0.768443
0.798128
0.825659
0.845913
0.914513
0.907763
0.888568
0.862953
0.836403
0.811581
0.789022
0.768215
0.748712
0.730144
0.713054
0.696804
0.683129
0.667676
0.655639
0.625929
0.596674
0.593871
0.608655
0.629632
0.652943
0.677289
0.702963
0.729439
0.757094
0.786399
0.817624
0.849911
0.880113
0.902688
0.965896
0.95959
0.940979
0.916058
0.890074
0.865395
0.842461