/*--------------------------------*- C++ -*----------------------------------*\
| =========                 |                                                 |
| \\      /  F ield         | OpenFOAM: The Open Source CFD Toolbox           |
|  \\    /   O peration     | Version:  5.0                                   |
|   \\  /    A nd           | Web:      www.OpenFOAM.org                      |
|    \\/     M anipulation  |                                                 |
\*---------------------------------------------------------------------------*/
FoamFile
{
    version     2.0;
    format      ascii;
    class       volScalarField;
    location    "50/air";
    object      nut;
}
// * * * * * * * * * * * * * * * * * * * * * * * * * * * * * * * * * * * * * //

dimensions      [0 2 -1 0 0 0 0];

internalField   nonuniform List<scalar> 
243000
(
0.000162428
0.000143826
0.000113761
8.67958e-05
8.34736e-05
9.28573e-05
9.98032e-05
0.000105603
0.000111814
0.000116606
0.00011986
0.00012217
0.000123774
0.000125084
0.000126068
0.000126689
0.000125991
0.000125502
0.000125055
0.000124485
0.000123364
0.000121534
0.00011856
0.000113985
0.0001097
0.000104942
9.78691e-05
8.55392e-05
0.000109769
0.000142082
0.000727197
0.000680337
0.000561773
0.000430635
0.000449256
0.000516926
0.0005739
0.000626006
0.000672423
0.000708642
0.000737385
0.000760387
0.000778246
0.000792333
0.000802032
0.000805731
0.00079956
0.000789995
0.000777231
0.000761529
0.00074168
0.000717319
0.000687367
0.000650993
0.000607327
0.000559465
0.000502162
0.000431221
0.000504192
0.00064836
0.000778406
0.000730628
0.000594664
0.000476141
0.000504785
0.000572176
0.000628323
0.000677837
0.000722756
0.000759514
0.000789196
0.000813196
0.000832001
0.000846952
0.00085731
0.000861077
0.000855321
0.00084514
0.000831259
0.000814306
0.000793197
0.00076759
0.000736706
0.000700304
0.00065862
0.00061193
0.000554579
0.000490314
0.000540379
0.000693693
0.000809194
0.000765808
0.000619655
0.000523748
0.000549958
0.000608088
0.000657826
0.000704577
0.000749813
0.000788206
0.000819543
0.000845004
0.000864987
0.000880914
0.000891946
0.000895896
0.000890592
0.000879876
0.000864854
0.00084651
0.000823736
0.000796218
0.000763438
0.000725796
0.000685323
0.000642705
0.000591781
0.00053791
0.00057712
0.000723044
0.000831582
0.000793503
0.000658159
0.000570109
0.00058684
0.00063254
0.000675505
0.000720873
0.000767959
0.000808545
0.000841735
0.000868734
0.000889848
0.000906658
0.000918233
0.000922372
0.000917539
0.000906538
0.000890583
0.000870959
0.000846441
0.000816759
0.000781516
0.00074165
0.000700331
0.000661651
0.000619314
0.00057911
0.000615443
0.000748895
0.000851851
0.00081919
0.000701254
0.00061371
0.000618493
0.00065174
0.000688354
0.000735337
0.000784436
0.000826984
0.000861669
0.000889894
0.000911864
0.000929333
0.000941269
0.000945552
0.000941142
0.0009302
0.000913651
0.000893099
0.000867159
0.000835579
0.000797956
0.000755668
0.000711413
0.000675349
0.000641921
0.000616627
0.000654444
0.000775548
0.000871534
0.000844067
0.000742629
0.000654251
0.000647806
0.000670398
0.000702858
0.000752437
0.000802667
0.000846365
0.000881921
0.000910923
0.000933424
0.000951336
0.000963486
0.000967889
0.000963831
0.000953228
0.000936408
0.000915347
0.00088847
0.000855537
0.000816088
0.00077219
0.000727299
0.000690552
0.000663347
0.000651764
0.000693547
0.000802464
0.000891447
0.000868536
0.000781006
0.000693153
0.000677284
0.000691482
0.000721596
0.000774113
0.000824131
0.000867886
0.000903643
0.000933016
0.000955819
0.000974057
0.000986339
0.000990886
0.000987112
0.000976969
0.000960189
0.000938986
0.00091163
0.00087795
0.000837425
0.000793006
0.000748661
0.000710162
0.000687044
0.000686387
0.000740601
0.000829986
0.000912274
0.000893172
0.000817268
0.000733076
0.000709238
0.000717057
0.000749158
0.000800595
0.000849264
0.000892082
0.000927444
0.000956874
0.000979883
0.00099846
0.00101085
0.00101563
0.00101212
0.00100238
0.000985948
0.000964878
0.000937407
0.000903543
0.00086268
0.000818678
0.000776024
0.000737501
0.000717314
0.000723972
0.000783575
0.000857854
0.000934676
0.000918644
0.000852726
0.000782352
0.000745117
0.000748351
0.000782668
0.000831601
0.000878139
0.000919271
0.000953811
0.000983068
0.00100625
0.00102529
0.00103785
0.00104299
0.00103975
0.00103046
0.0010143
0.000993735
0.000966478
0.000932912
0.000892308
0.000849289
0.00080892
0.000775245
0.000758198
0.000774284
0.000826048
0.000886719
0.000959449
0.000946204
0.000888647
0.000828364
0.000790008
0.000789445
0.00082134
0.000866732
0.000910743
0.000949999
0.0009834
0.00101243
0.00103583
0.00105547
0.00106821
0.00107394
0.00107095
0.00106223
0.00104627
0.00102624
0.000999726
0.000966846
0.000926816
0.00088477
0.000846608
0.000817287
0.0008079
0.000825299
0.000867779
0.000917189
0.000987525
0.00097653
0.000926162
0.000873521
0.00083949
0.000835712
0.000863475
0.000905495
0.000947351
0.000985172
0.00101752
0.00104657
0.00107004
0.00109024
0.00110301
0.00110893
0.00110631
0.00109819
0.00108315
0.00106414
0.00103855
0.00100673
0.000967309
0.000925603
0.000888784
0.000862576
0.000856932
0.000873872
0.000909799
0.000950579
0.00102011
0.00101074
0.000966417
0.000919366
0.000888578
0.000884032
0.000909255
0.000948996
0.000990047
0.00102715
0.00105828
0.00108562
0.00110777
0.00112726
0.00113965
0.00114574
0.00114355
0.00113616
0.00112226
0.00110493
0.00108161
0.00105267
0.00101626
0.000973897
0.000936459
0.00091132
0.000907105
0.000922744
0.000953696
0.000987897
0.00105896
0.00105043
0.0010112
0.000968068
0.000940066
0.00093621
0.000961687
0.00100114
0.00103912
0.00107304
0.00110168
0.00112676
0.00114728
0.00116567
0.00117753
0.00118376
0.00118208
0.00117557
0.00116298
0.00114763
0.00112694
0.00110099
0.00106876
0.00103045
0.000993672
0.00096559
0.000960776
0.000974464
0.00100164
0.00103092
0.00110724
0.00109869
0.00106389
0.00102428
0.00100015
0.000998675
0.00102211
0.00105625
0.0010895
0.00111972
0.00114575
0.0011685
0.00118731
0.00120451
0.00121579
0.00122215
0.00122106
0.00121556
0.00120435
0.00119104
0.00117297
0.00114979
0.00112156
0.00108822
0.00105574
0.00103113
0.00102363
0.00103391
0.00105785
0.00108324
0.00116147
0.00115214
0.00112066
0.00108533
0.00106396
0.0010625
0.00108213
0.00111072
0.00113913
0.00116542
0.00118862
0.00120911
0.00122633
0.00124246
0.00125326
0.00125981
0.00125936
0.00125489
0.001245
0.00123358
0.00121785
0.00119723
0.00117277
0.00114472
0.00111687
0.00109567
0.00108913
0.00109847
0.00111985
0.00114224
0.00121386
0.00120339
0.00117465
0.00114345
0.00112488
0.00112335
0.00113886
0.00116181
0.00118566
0.00120834
0.00122868
0.001247
0.00126276
0.00127805
0.00128859
0.00129548
0.0012957
0.00129216
0.00128338
0.00127356
0.00125983
0.00124169
0.00122068
0.00119736
0.00117401
0.00115643
0.0011511
0.00115953
0.00117864
0.00119867
0.00126079
0.0012494
0.00122323
0.00119617
0.00118016
0.00117833
0.00118961
0.0012072
0.00122657
0.00124613
0.00126405
0.00128062
0.00129521
0.00131
0.00132053
0.00132793
0.0013288
0.00132597
0.00131797
0.00130937
0.0012972
0.00128133
0.0012631
0.00124367
0.00122479
0.0012109
0.00120689
0.00121445
0.0012316
0.00124954
0.00129965
0.00128769
0.00126407
0.001241
0.00122728
0.00122472
0.00123175
0.00124432
0.0012595
0.00127619
0.0012925
0.00130824
0.00132244
0.00133738
0.00134828
0.00135636
0.00135779
0.0013553
0.00134754
0.00133951
0.0013281
0.00131364
0.00129739
0.00128149
0.00126689
0.0012566
0.00125413
0.00126082
0.00127605
0.00129218
0.00132811
0.00131567
0.00129468
0.00127521
0.00126337
0.00125958
0.00126223
0.00127039
0.0012823
0.00129699
0.00131255
0.00132852
0.00134356
0.00135972
0.00137158
0.00138057
0.00138246
0.00137972
0.00137124
0.0013626
0.00135074
0.0013366
0.00132175
0.00130861
0.00129771
0.00129095
0.00129023
0.00129626
0.00130951
0.00132373
0.00134352
0.0013307
0.00131184
0.00129539
0.00128405
0.00127809
0.00127762
0.00128284
0.00129359
0.00130843
0.00132508
0.00134269
0.00135992
0.00137839
0.00139174
0.00140172
0.00140385
0.0014001
0.0013897
0.00137903
0.00136541
0.00135012
0.00133516
0.00132295
0.00131455
0.00131102
0.0013122
0.00131801
0.00132952
0.00134194
0.00134378
0.00133026
0.00131251
0.0012964
0.00128375
0.00127682
0.00127499
0.00128141
0.00129564
0.00131449
0.00133502
0.0013562
0.00137714
0.00139868
0.0014139
0.00142439
0.00142626
0.00142066
0.00140698
0.00139263
0.00137545
0.00135675
0.00133873
0.00132421
0.00131525
0.00131313
0.00131624
0.00132263
0.00133315
0.00134468
0.00132563
0.00130937
0.00128965
0.00127385
0.0012638
0.00125855
0.00126014
0.00127756
0.00130312
0.00133015
0.00135659
0.00138209
0.00140711
0.00143111
0.00144756
0.00145703
0.00145755
0.00144908
0.00143125
0.00141196
0.00138966
0.0013652
0.00134037
0.00131805
0.00130115
0.00129439
0.00129701
0.0013052
0.00131628
0.00132805
0.00128963
0.00126982
0.00124459
0.0012432
0.00124765
0.00125744
0.00128098
0.0013108
0.00134232
0.00137278
0.00140146
0.00142871
0.00145562
0.00148132
0.00149857
0.00150834
0.00150913
0.00149845
0.00147712
0.00145348
0.00142691
0.00139725
0.00136504
0.00133149
0.00129861
0.00127032
0.00126026
0.00126579
0.00127757
0.00129066
0.00127704
0.00127022
0.00126198
0.00126703
0.00128471
0.00131159
0.00134217
0.00137364
0.00140426
0.00143323
0.00146061
0.00148709
0.00151381
0.00153984
0.00155698
0.00156701
0.00156848
0.00155821
0.00153678
0.00151308
0.001487
0.00145805
0.00142619
0.00139193
0.00135607
0.00132032
0.00129048
0.00127427
0.00126931
0.00127089
0.00134169
0.00134335
0.00134808
0.00136031
0.00137955
0.00140276
0.0014278
0.00145295
0.0014775
0.00150133
0.00152469
0.00154827
0.00157312
0.00159826
0.00161456
0.00162481
0.00162741
0.00161879
0.00159896
0.00157747
0.00155458
0.00152976
0.00150291
0.00147431
0.00144441
0.00141398
0.00138503
0.0013604
0.00134415
0.00133616
0.00144755
0.00145243
0.00146048
0.00147138
0.00148448
0.00149901
0.00151469
0.00153094
0.00154764
0.00156494
0.00158311
0.00160273
0.00162475
0.00164821
0.00166328
0.00167387
0.00167795
0.00167147
0.00165411
0.00163597
0.00161755
0.00159836
0.00157833
0.00155764
0.0015366
0.00151542
0.0014947
0.00147482
0.00145757
0.00144599
0.00155475
0.00155784
0.00156237
0.00156737
0.00157275
0.00157876
0.0015858
0.00159395
0.00160348
0.00161466
0.00162777
0.00164335
0.00166216
0.00168345
0.00169736
0.00170838
0.00171414
0.00170986
0.00169528
0.00168093
0.00166731
0.00165382
0.00164043
0.00162725
0.00161446
0.00160201
0.00158981
0.00157763
0.00156578
0.00155595
0.00164011
0.00163933
0.00163838
0.00163713
0.00163589
0.0016352
0.00163556
0.00163739
0.00164115
0.00164723
0.00165593
0.00166777
0.00168318
0.00170205
0.00171493
0.00172631
0.00173381
0.00173152
0.00171987
0.00170958
0.00170058
0.00169228
0.00168461
0.00167763
0.00167138
0.00166569
0.0016602
0.00165454
0.00164864
0.00164267
0.00169892
0.00169422
0.00168859
0.00168246
0.0016763
0.00167071
0.00166616
0.0016632
0.00166239
0.00166427
0.00166922
0.0016775
0.00168967
0.00170558
0.00171752
0.00172916
0.00173823
0.00173784
0.00172908
0.00172315
0.00171841
0.00171465
0.00171176
0.00170971
0.0017084
0.0017076
0.00170686
0.00170584
0.00170441
0.0017021
0.000183071
0.00017931
0.000155908
0.000130838
0.000117813
0.000124307
0.000128127
0.000129356
0.000129238
0.00012877
0.000127767
0.000126629
0.000125413
0.000124457
0.000123816
0.000123578
0.000123446
0.000124216
0.000125901
0.000128094
0.000130408
0.000132756
0.000134798
0.000136529
0.000137243
0.000135255
0.000128192
0.000123166
0.00014832
0.000176135
0.00118667
0.00124369
0.00116721
0.000922841
0.000815675
0.000836832
0.0008576
0.000873462
0.000872573
0.000861596
0.000850208
0.000841906
0.000835684
0.000834378
0.000836305
0.000843326
0.000847749
0.000852189
0.000857544
0.00086484
0.000872577
0.000882959
0.000893515
0.000896104
0.000880033
0.000853084
0.000802931
0.000833182
0.00107968
0.00118427
0.00183042
0.00195695
0.00194956
0.00174086
0.00159435
0.00160314
0.00160454
0.00160266
0.00157598
0.00154579
0.00151292
0.00148481
0.00146099
0.00144649
0.00143864
0.00144652
0.001461
0.00148478
0.00151104
0.00153938
0.00156716
0.0015968
0.00162233
0.0016399
0.00163111
0.00160781
0.00155768
0.00160073
0.0018037
0.00184504
0.00223167
0.00239463
0.00247916
0.00241171
0.00230077
0.00227396
0.00223908
0.00219424
0.00214308
0.00209329
0.00204201
0.00199759
0.00196066
0.0019372
0.00192242
0.00193217
0.00195603
0.00199767
0.00204107
0.0020856
0.00212851
0.0021728
0.0022108
0.00224133
0.00226251
0.00226615
0.00224699
0.00228267
0.00235405
0.00227703
0.00253183
0.00271054
0.00287199
0.0029362
0.00289155
0.00284864
0.00278042
0.0027071
0.00264034
0.00257915
0.0025197
0.00246921
0.00242885
0.00240497
0.00238872
0.00240283
0.00243333
0.00248735
0.00253979
0.0025903
0.00263691
0.00268463
0.00272618
0.00276153
0.00280283
0.00283815
0.00284609
0.00283565
0.0027731
0.00260643
0.00277689
0.00295791
0.00316111
0.00330987
0.00334455
0.00331229
0.00323827
0.00316301
0.00309531
0.003036
0.00298121
0.00293729
0.00290451
0.00288951
0.00287789
0.00289828
0.00293229
0.00299237
0.00304467
0.00308952
0.0031267
0.00316435
0.00319682
0.00322347
0.00326256
0.00331019
0.0033155
0.00324997
0.00308128
0.00286745
0.00298903
0.00316388
0.00337777
0.00356257
0.00366041
0.00367366
0.00362485
0.00356491
0.00351329
0.00347342
0.00343882
0.00341545
0.00340213
0.00340594
0.00340531
0.00343345
0.00346757
0.00352652
0.00356865
0.00359532
0.00360924
0.00362166
0.00362831
0.00362912
0.00364414
0.00367026
0.0036391
0.00351671
0.00330398
0.00308099
0.00318771
0.00335215
0.00355751
0.00374869
0.00388236
0.00394129
0.00394314
0.00392886
0.00390802
0.00389688
0.00389563
0.00390718
0.00392489
0.00395685
0.00397392
0.0040107
0.00404143
0.00409161
0.00411257
0.0041101
0.00408692
0.0040588
0.0040298
0.00399464
0.00395989
0.00393252
0.00385561
0.00369429
0.00347828
0.00327171
0.00339182
0.00354259
0.00373507
0.00391107
0.00405575
0.00415297
0.00420882
0.00424544
0.00427187
0.00430936
0.00435515
0.00441328
0.00447199
0.0045376
0.00457589
0.00462188
0.00464753
0.00468221
0.00467305
0.00463318
0.00456238
0.00448293
0.00440084
0.00431119
0.00421855
0.00413499
0.00401621
0.00384368
0.00364499
0.00346144
0.00361917
0.00375695
0.0039322
0.00408857
0.0042286
0.00435287
0.00445421
0.00454757
0.00462941
0.00472144
0.00482086
0.00492946
0.00503086
0.00513117
0.00519227
0.00524763
0.00526722
0.00528277
0.00524227
0.00515906
0.00503749
0.00490212
0.00476291
0.00461448
0.0044606
0.00432673
0.00417684
0.00400619
0.00383237
0.00367257
0.00388559
0.00401241
0.00416854
0.00430797
0.00444345
0.00458214
0.0047158
0.00485992
0.00499673
0.00514288
0.00529442
0.00544945
0.00558753
0.00571442
0.00579305
0.00585257
0.00586542
0.0058591
0.00579311
0.00567493
0.00551084
0.00532465
0.00513201
0.0049295
0.00472615
0.00455124
0.00438066
0.0042148
0.00406107
0.00392437
0.00420372
0.00432164
0.00445875
0.00458531
0.00471633
0.00486221
0.00501969
0.0052015
0.00538606
0.00557718
0.00577071
0.00595824
0.00611952
0.00625613
0.00634153
0.00639882
0.00640387
0.00637661
0.00629321
0.0061541
0.00596641
0.00574792
0.00551702
0.00527653
0.0050375
0.00483303
0.00465054
0.00448814
0.00434784
0.00423134
0.00458093
0.00469051
0.00480986
0.00492578
0.00505166
0.00520088
0.00537429
0.00558009
0.0057953
0.00601323
0.00623025
0.00643565
0.00661118
0.00675306
0.00684192
0.00689405
0.00688938
0.00684379
0.00674745
0.0065937
0.0063917
0.00615537
0.00590879
0.00565421
0.00539942
0.0051795
0.00499183
0.0048327
0.00470163
0.00460132
0.00501378
0.00511399
0.00521822
0.00532349
0.00544194
0.00559079
0.0057708
0.00598188
0.00620898
0.00644134
0.00667404
0.00689068
0.00707441
0.0072179
0.00730708
0.00735137
0.007335
0.00727477
0.0071693
0.00700697
0.00679861
0.00655322
0.00630047
0.00604364
0.00579542
0.0055791
0.00539424
0.00524083
0.00511821
0.00503103
0.00547836
0.00556947
0.00566163
0.00575467
0.00586429
0.00600769
0.00618609
0.00639738
0.00662883
0.00686734
0.00710977
0.00733054
0.00751641
0.00765854
0.00774512
0.00777964
0.00775045
0.00768045
0.00756933
0.00740408
0.00719564
0.00694725
0.00669687
0.006445
0.00620615
0.00600038
0.00582731
0.00568641
0.00557277
0.00549614
0.00594333
0.00602804
0.00610854
0.00619137
0.00629585
0.00643597
0.00661379
0.00682403
0.00705344
0.00729196
0.00753805
0.00775676
0.00793951
0.0080754
0.00815596
0.00817943
0.00813769
0.00806321
0.007951
0.00778814
0.00758393
0.00733811
0.00709584
0.00685499
0.00662833
0.00642938
0.00626445
0.00613301
0.00602976
0.00596088
0.00640763
0.00648483
0.00655095
0.00662859
0.00673008
0.00686733
0.00704198
0.00724837
0.00747407
0.00770903
0.00795146
0.00816431
0.00833746
0.0084612
0.00853204
0.00854279
0.00848934
0.00841437
0.00830656
0.00815244
0.00795679
0.00771967
0.00748866
0.00726183
0.00704665
0.00685724
0.00670012
0.00657619
0.00648154
0.00642207
0.0068565
0.00692095
0.00697871
0.00705281
0.00715128
0.00728413
0.00745237
0.00765038
0.00787031
0.00810289
0.00833552
0.00853789
0.00869513
0.00880127
0.00885877
0.00885511
0.00879119
0.00871807
0.00862055
0.00848113
0.00829851
0.00807677
0.0078564
0.00764278
0.00744283
0.00726671
0.00711958
0.00700391
0.00691734
0.00686541
0.00726611
0.00731658
0.00736997
0.00744017
0.00753379
0.0076594
0.00781767
0.00800403
0.00821351
0.00844115
0.00866384
0.00885281
0.00898953
0.00907413
0.00911575
0.00909706
0.00902414
0.00895488
0.00887189
0.00875138
0.00858488
0.0083799
0.00816796
0.00797089
0.00778993
0.00763125
0.00749809
0.00739344
0.00731658
0.00727197
0.00760769
0.00764362
0.00769257
0.0077569
0.00784276
0.00795784
0.00810324
0.0082754
0.00847313
0.00869038
0.00889944
0.00907211
0.00918813
0.00925086
0.00927747
0.00924619
0.00916669
0.00910199
0.00903433
0.00893214
0.00878093
0.00859183
0.00839275
0.00821385
0.00805431
0.00791656
0.00780145
0.00771157
0.00764745
0.0076117
0.00784207
0.00786598
0.00790711
0.00796258
0.00803753
0.00813962
0.00827066
0.008428
0.00861437
0.00881864
0.00901308
0.00916657
0.00925936
0.00930104
0.00931342
0.00927489
0.00919309
0.00913274
0.00908083
0.00899608
0.00886196
0.0086877
0.00850348
0.00833923
0.00820075
0.00808494
0.00799028
0.0079184
0.00787054
0.00784643
0.00793225
0.00794472
0.00797465
0.00801831
0.00808012
0.00816854
0.00828618
0.00843282
0.00860839
0.0088017
0.00898491
0.00912239
0.00919666
0.0092242
0.00922933
0.00919411
0.0091163
0.00906063
0.00902004
0.00894724
0.00882307
0.00865611
0.00848234
0.00832743
0.00820243
0.0081051
0.00802987
0.00797683
0.00794753
0.00793829
0.00785537
0.00785474
0.00787169
0.00790146
0.00794961
0.00802641
0.00813752
0.0082778
0.00844785
0.00863741
0.00881722
0.00895004
0.00901738
0.00904375
0.00905197
0.00903464
0.008971
0.00891714
0.00888102
0.0088111
0.00868343
0.00851208
0.00833783
0.00818325
0.00805808
0.00796814
0.00790652
0.00786863
0.00785657
0.00786374
0.00761909
0.00760432
0.00760921
0.00762517
0.00766355
0.0077362
0.00784769
0.00799586
0.00818202
0.00838687
0.00858032
0.00872336
0.00880365
0.00884688
0.00887516
0.0088744
0.0088191
0.00876551
0.00872317
0.00863841
0.00848787
0.00829679
0.00810991
0.00794152
0.0078046
0.00770677
0.00764443
0.00761255
0.00761219
0.00763012
0.0072704
0.00724577
0.00724302
0.00727269
0.00733491
0.0074336
0.00757181
0.00774819
0.00796316
0.00819611
0.00841775
0.00859303
0.00870107
0.00876878
0.00882254
0.00883761
0.00878488
0.00871897
0.00865561
0.00854435
0.00836313
0.00813955
0.0079128
0.00770581
0.00753146
0.00739781
0.0073111
0.00726909
0.00726831
0.00728715
0.00695428
0.00696269
0.00698846
0.00704555
0.00713922
0.00727043
0.00744167
0.00765145
0.00789738
0.00816139
0.00841466
0.00862334
0.0087641
0.00886239
0.0089439
0.00897356
0.00892257
0.00884401
0.00875712
0.00861914
0.00840757
0.00815063
0.00788408
0.00763518
0.00741925
0.00724334
0.00711216
0.00702812
0.00698555
0.00696853
0.0068816
0.00692326
0.00697811
0.00706354
0.00718598
0.00734549
0.00754417
0.00778057
0.00805169
0.00834122
0.00862022
0.00885502
0.00902483
0.00915156
0.00925812
0.00930274
0.00925568
0.00917043
0.00906439
0.0089054
0.00867126
0.0083874
0.00808969
0.00780628
0.0075542
0.00734072
0.00716715
0.00703836
0.00695262
0.00689224
0.0071689
0.00723707
0.00732374
0.00743657
0.00758162
0.00776004
0.00797383
0.00822301
0.00850591
0.00880647
0.00909683
0.00934546
0.00953453
0.009682
0.00980856
0.00987128
0.00983159
0.0097508
0.0096342
0.00946457
0.00922102
0.00892335
0.00860747
0.00830247
0.00802701
0.00778605
0.00757731
0.00740769
0.00727801
0.00717852
0.00804069
0.00814272
0.00825767
0.00838966
0.008544
0.00872476
0.00893099
0.00916936
0.00944083
0.00972759
0.0100055
0.0102487
0.0104395
0.0105962
0.0107378
0.0108206
0.0107941
0.0107313
0.010626
0.0104655
0.0102329
0.00994728
0.00963613
0.00933096
0.00905205
0.00880198
0.00857113
0.00836809
0.00819737
0.00805516
0.010212
0.0103281
0.0104467
0.0105649
0.0106887
0.0108261
0.0109734
0.0111443
0.0113456
0.0115661
0.0117867
0.0119838
0.0121442
0.0122855
0.012438
0.0125483
0.0125563
0.0125344
0.0124747
0.0123615
0.0121841
0.0119577
0.0117057
0.0114566
0.0112242
0.0110112
0.0107979
0.0105905
0.0104003
0.0102345
0.000192701
0.000190191
0.000174897
0.000158208
0.000148645
0.000148179
0.00014847
0.000147741
0.000146187
0.000144145
0.000141779
0.00013954
0.000137403
0.000135932
0.000134798
0.000134662
0.000135131
0.000136824
0.000139325
0.000142539
0.00014586
0.000149407
0.000152749
0.000155626
0.000157398
0.00015716
0.000154996
0.000155047
0.000171002
0.000188842
0.00150098
0.00154776
0.00153011
0.00147487
0.00138411
0.00131391
0.00124138
0.00119128
0.00115607
0.00113177
0.001113
0.00110274
0.00109894
0.00110722
0.00111883
0.00113957
0.0011497
0.00115661
0.0011573
0.0011608
0.00116524
0.0011767
0.0011938
0.00122015
0.00125867
0.00131354
0.00133754
0.00138556
0.00149235
0.00150094
0.00271005
0.0028227
0.00288344
0.00288219
0.0027286
0.00257319
0.0024359
0.00234258
0.0022811
0.00224308
0.00221642
0.00220541
0.00220701
0.00223106
0.00226033
0.00230383
0.00232398
0.00234019
0.00234169
0.00234404
0.00234377
0.00235195
0.00236806
0.00240069
0.00245937
0.00255424
0.00265245
0.00274689
0.00277252
0.00269842
0.00366039
0.0038405
0.00402499
0.00412935
0.00398446
0.003786
0.00359781
0.00345884
0.00336432
0.00330587
0.00326842
0.00325561
0.00326387
0.00330658
0.00335716
0.00342378
0.00345452
0.00348136
0.00348365
0.0034843
0.00347853
0.00348333
0.00350103
0.00354526
0.00362922
0.00375741
0.00388781
0.00396812
0.00384917
0.00366445
0.00445688
0.0046949
0.00500799
0.00523466
0.00517179
0.00498305
0.00477466
0.00460585
0.00448409
0.00440616
0.00435851
0.00434489
0.00436067
0.00442494
0.00449856
0.00458846
0.00463066
0.0046693
0.00467271
0.00466946
0.00465593
0.00465482
0.00467173
0.00472308
0.00482131
0.00495716
0.00506958
0.00504859
0.00477711
0.00448642
0.00513706
0.00542929
0.00585846
0.00620602
0.00627318
0.00614937
0.00596792
0.00580084
0.0056724
0.00558774
0.00553721
0.00552818
0.00555532
0.00564351
0.00574074
0.00585336
0.00590726
0.0059586
0.00596113
0.00594999
0.00592292
0.00590696
0.00591057
0.00595031
0.00603299
0.0061345
0.00616526
0.00599488
0.00558423
0.00519471
0.00571569
0.00605786
0.00657366
0.00703373
0.00723851
0.00723343
0.00712342
0.00700082
0.00689768
0.00683033
0.0067937
0.00680114
0.00684801
0.00696394
0.00708501
0.00721907
0.00728352
0.00734463
0.00734142
0.00731387
0.00726103
0.00721344
0.00718019
0.00717693
0.00720274
0.00721626
0.00711777
0.00680118
0.00626895
0.00580405
0.0062028
0.0065411
0.00707994
0.00764233
0.00801992
0.00815001
0.00816049
0.00812119
0.0080801
0.00805982
0.00806062
0.00810276
0.00818276
0.00833216
0.00847814
0.00863245
0.00870362
0.00876775
0.0087488
0.00869163
0.00859513
0.0084936
0.00839423
0.00831136
0.0082353
0.00811624
0.00787781
0.00738093
0.00677789
0.00630859
0.00660215
0.00689652
0.00742394
0.00801641
0.00850797
0.00883393
0.00899678
0.00907053
0.00912427
0.00918003
0.00924279
0.00934061
0.00946785
0.00965774
0.00983027
0.0100039
0.0100764
0.0101331
0.0100857
0.00998354
0.009824
0.0096462
0.00945351
0.0092568
0.00905266
0.00876352
0.00831737
0.0077362
0.00712508
0.00669185
0.006932
0.00720477
0.00769635
0.00828836
0.00884551
0.00927295
0.00956895
0.00978849
0.00995912
0.0101134
0.0102582
0.0104284
0.0106155
0.0108495
0.0110493
0.0112412
0.0113096
0.0113479
0.01126
0.0110986
0.0108626
0.0105929
0.0102875
0.00995926
0.00958453
0.00916
0.00862057
0.00799788
0.00740932
0.00702369
0.0072197
0.00747309
0.00793488
0.00850269
0.00907399
0.00956431
0.00996185
0.010289
0.0105683
0.0108252
0.0110667
0.0113168
0.0115693
0.0118469
0.0120716
0.0122811
0.0123422
0.0123531
0.0122185
0.0119899
0.01167
0.0112989
0.0108914
0.0104499
0.00996861
0.00943921
0.00884264
0.0082115
0.00766372
0.00730447
0.00749016
0.00771961
0.00814331
0.00866594
0.00921602
0.00973231
0.0101945
0.0106099
0.0109886
0.0113448
0.0116784
0.0120058
0.0123179
0.0126317
0.0128746
0.0130996
0.0131521
0.0131322
0.0129555
0.0126659
0.0122699
0.0118102
0.0113051
0.0107677
0.0102042
0.00961498
0.00900181
0.00840067
0.00789403
0.00756435
0.0077669
0.00796966
0.00834546
0.0088142
0.0093266
0.00984115
0.0103391
0.0108185
0.0112765
0.0117159
0.0121291
0.0125235
0.0128864
0.0132281
0.0134831
0.0137135
0.0137562
0.0137103
0.0134983
0.0131577
0.0126981
0.0121665
0.0115854
0.0109783
0.0103612
0.0097453
0.00914187
0.0085819
0.00812346
0.00782956
0.00806861
0.00824402
0.0085702
0.00898357
0.00945161
0.00994812
0.0104598
0.0109794
0.0114943
0.0119971
0.0124731
0.0129237
0.0133313
0.0136937
0.0139532
0.0141717
0.0141983
0.014127
0.0138912
0.0135148
0.0130098
0.0124261
0.0117924
0.0111416
0.0104975
0.00987884
0.00930086
0.00878728
0.00837786
0.00812046
0.00840963
0.00855982
0.00884047
0.00920293
0.00962664
0.0100974
0.0106076
0.0111474
0.0116981
0.0122437
0.0127639
0.0132566
0.0136974
0.0140783
0.0143425
0.0145378
0.0145407
0.0144388
0.0141823
0.0137862
0.0132567
0.0126436
0.0119807
0.0113091
0.0106589
0.0100531
0.00950813
0.00904037
0.00867644
0.00845236
0.00880233
0.00893128
0.00917365
0.00949284
0.00987659
0.0103197
0.0108193
0.0113636
0.011931
0.0124995
0.0130452
0.0135633
0.0140239
0.0144149
0.0146819
0.014857
0.0148312
0.0147051
0.0144322
0.0140212
0.0134811
0.01286
0.0121909
0.0115188
0.0108786
0.0102953
0.0097848
0.00935859
0.00903375
0.00883773
0.0092578
0.00936984
0.00958174
0.00986572
0.0102157
0.0106327
0.011116
0.011653
0.0122207
0.0127938
0.0133471
0.0138729
0.0143377
0.0147269
0.014988
0.0151367
0.0150749
0.0149323
0.0146538
0.0142427
0.013709
0.0130999
0.0124463
0.0117923
0.0111753
0.0106207
0.0101437
0.00975354
0.00946113
0.00928755
0.00977942
0.00987824
0.0100664
0.0103225
0.0106451
0.0110384
0.0115021
0.0120231
0.012578
0.0131402
0.0136851
0.0142013
0.0146538
0.0150257
0.0152679
0.0153744
0.015267
0.0151148
0.0148459
0.0144538
0.0139471
0.0133698
0.0127515
0.0121325
0.01155
0.0110292
0.0105852
0.0102264
0.00996073
0.00980502
0.0103561
0.0104444
0.0106143
0.0108491
0.0111501
0.0115223
0.0119645
0.0124637
0.0129966
0.0135365
0.0140594
0.0145506
0.0149746
0.0153121
0.0155198
0.0155612
0.0154023
0.0152459
0.0149976
0.0146445
0.0141855
0.0136589
0.013093
0.0125233
0.011985
0.0115034
0.011093
0.0107626
0.0105197
0.0103786
0.0109582
0.0110383
0.0111953
0.0114148
0.0116991
0.0120527
0.0124733
0.0129474
0.0134525
0.0139633
0.0144551
0.0149095
0.0152906
0.0155778
0.0157357
0.0156919
0.0154806
0.0153223
0.0151025
0.0148003
0.0144044
0.0139426
0.0134413
0.012932
0.0124453
0.0120072
0.0116321
0.0113292
0.0111067
0.0109783
0.0115379
0.0116129
0.0117624
0.0119729
0.0122458
0.0125841
0.0129846
0.0134333
0.0139091
0.0143879
0.0148441
0.0152546
0.0155831
0.015808
0.0159051
0.0157668
0.0155091
0.0153492
0.0151607
0.014909
0.0145809
0.0141891
0.0137575
0.0133139
0.0128829
0.0124904
0.0121515
0.0118757
0.0116719
0.0115551
0.0120352
0.0121098
0.0122588
0.0124676
0.0127352
0.0130637
0.0134481
0.0138744
0.0143234
0.0147717
0.0151924
0.0155576
0.0158294
0.0159872
0.0160199
0.0157952
0.0155068
0.0153449
0.0151819
0.0149698
0.0146995
0.0143715
0.0140053
0.0136242
0.0132465
0.0128971
0.0125921
0.0123413
0.0121543
0.0120471
0.0123917
0.0124727
0.0126302
0.0128466
0.0131173
0.0134434
0.0138184
0.014229
0.0146578
0.0150816
0.0154713
0.0157953
0.0160136
0.0161103
0.0160874
0.0158101
0.0155161
0.0153514
0.0151984
0.0150033
0.0147658
0.0144828
0.0141659
0.0138338
0.0134981
0.0131823
0.0129031
0.0126711
0.0124959
0.012394
0.012572
0.0126692
0.0128452
0.0130805
0.0133639
0.0136959
0.0140705
0.0144754
0.0148943
0.0153029
0.0156709
0.0159637
0.0161404
0.0161934
0.0161385
0.0158771
0.0156103
0.0154406
0.0152732
0.0150603
0.0148207
0.0145505
0.0142552
0.0139474
0.0136326
0.0133313
0.0130635
0.0128385
0.0126662
0.0125608
0.0125927
0.0127108
0.0129165
0.0131824
0.0134882
0.013834
0.0142185
0.014628
0.0150488
0.0154527
0.0158104
0.0160862
0.0162398
0.0162765
0.0162275
0.0160448
0.0158085
0.0156287
0.0154505
0.015219
0.014944
0.0146378
0.0143298
0.0140147
0.0136936
0.0133784
0.0130945
0.0128568
0.0126813
0.0125809
0.0125407
0.012682
0.0129179
0.0132042
0.0135392
0.0139152
0.0143175
0.0147402
0.0151734
0.0155804
0.0159383
0.0162123
0.0163642
0.0164149
0.0164111
0.0162962
0.0160924
0.0159079
0.0157152
0.0154676
0.0151649
0.0148234
0.0144745
0.0141259
0.0137701
0.0134191
0.0130948
0.0128253
0.0126265
0.0125194
0.0125579
0.0127325
0.0130008
0.0133162
0.0136705
0.0140585
0.0144692
0.0148988
0.015333
0.0157601
0.0161283
0.0164121
0.016578
0.0166638
0.0167175
0.0166677
0.016503
0.0163254
0.0161229
0.0158573
0.0155332
0.0151605
0.0147702
0.0143742
0.0139668
0.0135898
0.0132427
0.0129253
0.0126783
0.0125303
0.0128394
0.0130431
0.013336
0.0136705
0.0140378
0.0144286
0.0148373
0.0152611
0.0156902
0.0161069
0.0164739
0.0167682
0.0169569
0.0170853
0.0172072
0.0172297
0.0171188
0.0169632
0.0167603
0.0164854
0.0161365
0.01574
0.0153237
0.0149044
0.0144802
0.0140691
0.0136883
0.0133288
0.0130203
0.0128162
0.013685
0.0139015
0.0141965
0.0145321
0.0148908
0.015256
0.015631
0.0160145
0.0164019
0.0167804
0.0171209
0.0174025
0.0176077
0.0177743
0.0179699
0.0180824
0.0180455
0.0179358
0.0177476
0.0174754
0.0171307
0.0167402
0.0163281
0.0159092
0.015488
0.015074
0.0146777
0.0142922
0.0139416
0.0136789
0.015618
0.0157993
0.0160444
0.0163173
0.0165976
0.0168719
0.0171438
0.0174173
0.0176968
0.017975
0.0182349
0.0184635
0.0186566
0.0188524
0.0191191
0.0193375
0.0193998
0.0193676