/*--------------------------------*- C++ -*----------------------------------*\
| =========                 |                                                 |
| \\      /  F ield         | OpenFOAM: The Open Source CFD Toolbox           |
|  \\    /   O peration     | Version:  5.0                                   |
|   \\  /    A nd           | Web:      www.OpenFOAM.org                      |
|    \\/     M anipulation  |                                                 |
\*---------------------------------------------------------------------------*/
FoamFile
{
    version     2.0;
    format      ascii;
    class       volScalarField;
    location    "1800/air";
    object      alphat;
}
// * * * * * * * * * * * * * * * * * * * * * * * * * * * * * * * * * * * * * //

dimensions      [1 -1 -1 0 0 0 0];

internalField   nonuniform List<scalar> 
243000
(
0.000169654
0.000172519
0.000169013
0.000163701
0.000157216
0.000150154
0.000142842
0.000135537
0.000128425
0.000121681
0.000115399
0.000109636
0.000104361
9.96118e-05
9.53864e-05
9.17733e-05
8.88458e-05
8.83328e-05
8.63222e-05
8.74324e-05
8.84205e-05
8.7309e-05
8.5992e-05
8.44329e-05
8.25668e-05
8.1905e-05
0.000363678
0.000344212
0.000316251
8.60912e-05
0.000739074
0.00078207
0.000791068
0.000789177
0.000780416
0.000766925
0.000750113
0.000731074
0.000710486
0.00068898
0.000666897
0.000644569
0.000622034
0.000599861
0.000578447
0.000558445
0.00054031
0.000521268
0.00051518
0.000503702
0.000497629
0.000494561
0.000484058
0.000468765
0.000447866
0.000417876
0.000390542
0.000355787
0.000326183
0.000356596
0.000797082
0.00084047
0.000852416
0.000851555
0.000842925
0.00082906
0.000811566
0.00079158
0.000769856
0.000747121
0.00072374
0.000700114
0.000676376
0.000653212
0.0006311
0.000610752
0.000592608
0.000577797
0.000567545
0.000559972
0.000553925
0.000546934
0.000535834
0.000519149
0.000496573
0.000467954
0.000434308
0.000393447
0.000357511
0.000361524
0.000823082
0.000868012
0.00088339
0.000885575
0.000879225
0.000867105
0.000850864
0.000831684
0.000810383
0.000787758
0.00076428
0.000740472
0.000716553
0.000693316
0.000671336
0.000651401
0.000633936
0.000620221
0.000610183
0.00060291
0.000596501
0.000588733
0.000577169
0.00056016
0.000537107
0.000507794
0.000472453
0.000429621
0.000390712
0.00037092
0.000827865
0.000872739
0.000894216
0.00090097
0.000898171
0.000888961
0.000875023
0.00085763
0.000837663
0.000816005
0.000793222
0.000769957
0.000746535
0.000723856
0.000702552
0.000683506
0.00066711
0.000654481
0.000645111
0.000637931
0.000631086
0.000622661
0.000610577
0.000593291
0.000570129
0.000540745
0.000505221
0.000461978
0.000421884
0.00039229
0.00081858
0.000863959
0.000890765
0.000903004
0.000904701
0.00089908
0.000888109
0.000873111
0.000855071
0.000834963
0.000813413
0.000791189
0.000768727
0.000747046
0.000726759
0.000708915
0.000693807
0.000682353
0.000673704
0.000666625
0.000659376
0.00065032
0.000637717
0.000620209
0.000597137
0.000568065
0.000532978
0.000490169
0.000449593
0.000415488
0.00079772
0.000845838
0.000877883
0.000895398
0.000901963
0.000900554
0.000892808
0.000880475
0.000864813
0.000846682
0.000826761
0.000805941
0.000784762
0.00076437
0.000745345
0.000728894
0.000715194
0.000704933
0.000696999
0.000690046
0.000682461
0.000672847
0.00065978
0.000642108
0.000619229
0.000590654
0.000556276
0.000514511
0.000473798
0.000437041
0.000767182
0.00081994
0.000857302
0.000880307
0.000891989
0.000894989
0.000891096
0.000881904
0.000868564
0.00085259
0.000834611
0.000815473
0.000795821
0.000776887
0.000759307
0.000744357
0.000732121
0.000723029
0.000715784
0.000708993
0.000701157
0.000691096
0.000677649
0.000659876
0.000637244
0.000609253
0.00057572
0.000535229
0.000494849
0.000455803
0.000729421
0.000787907
0.000830815
0.000859368
0.000876305
0.000883826
0.000883944
0.000878162
0.000867898
0.000854219
0.000838029
0.000820743
0.000802776
0.000785433
0.000769401
0.000756003
0.000745234
0.000737259
0.000730678
0.000724085
0.000716097
0.000705711
0.000691995
0.000674194
0.000651851
0.000624478
0.000591861
0.000552383
0.00051268
0.000472678
0.000691934
0.000753609
0.000800656
0.000834169
0.000856177
0.000868288
0.000872499
0.000870341
0.000863137
0.00085208
0.000838267
0.000822627
0.000806344
0.000790661
0.000776226
0.000764382
0.000755035
0.000748116
0.000742168
0.000735814
0.000727774
0.000717196
0.000703331
0.000685588
0.000663582
0.000636937
0.000604941
0.000566733
0.000527904
0.000487599
0.000656668
0.000718578
0.000769691
0.000807332
0.000833
0.000849442
0.000857684
0.000859201
0.000855187
0.00084685
0.000835295
0.000821769
0.000807223
0.000793106
0.000780269
0.000769936
0.000761936
0.000756
0.000750657
0.000744578
0.000736587
0.000725947
0.000712063
0.000694479
0.000672926
0.000646768
0.00061539
0.000578806
0.00054099
0.000500809
0.000627639
0.00068328
0.000737363
0.000779426
0.00080923
0.000828908
0.000840452
0.000845419
0.000844628
0.000839072
0.000829904
0.0008184
0.000805675
0.000793278
0.000781937
0.000773035
0.000766278
0.000761249
0.000756478
0.000750712
0.000742863
0.0007323
0.000718523
0.000701249
0.000680055
0.000654349
0.000623535
0.000588787
0.000552154
0.000512397
0.000610916
0.000650018
0.000703699
0.000749899
0.00078427
0.000807745
0.000822314
0.000829818
0.000831995
0.000829211
0.000822464
0.000813053
0.000802144
0.000791383
0.000781543
0.00077398
0.000768361
0.000764156
0.000759921
0.000754497
0.000746882
0.000736539
0.000723046
0.000706038
0.000685213
0.000659946
0.000629687
0.00059689
0.000561557
0.000522414
0.000612799
0.000624424
0.000670163
0.000718635
0.000757656
0.000785473
0.000803557
0.000813816
0.000818082
0.000817758
0.000813357
0.000806048
0.00079695
0.000787781
0.000779368
0.00077304
0.000768407
0.000764963
0.000761236
0.000756212
0.000748939
0.000738853
0.000725629
0.000708978
0.000688571
0.000663772
0.000634762
0.000603553
0.000569444
0.000530986
0.000635847
0.000615541
0.000641333
0.000686707
0.000729273
0.000761708
0.000783817
0.000797245
0.000803921
0.000805439
0.000803012
0.000797684
0.000790371
0.00078273
0.000775657
0.000770451
0.000766713
0.000763926
0.000760671
0.00075596
0.00074896
0.000739215
0.000726372
0.000710164
0.000690265
0.000666013
0.000638706
0.000608957
0.000575986
0.000538223
0.000675301
0.000632196
0.000626263
0.000657785
0.000699955
0.000736355
0.000762796
0.000779833
0.000789283
0.000792894
0.000792075
0.000788325
0.000782655
0.000776466
0.000770634
0.000766437
0.000763488
0.000761275
0.00075846
0.000754149
0.000747525
0.000738104
0.000725625
0.000709822
0.000690392
0.000667162
0.000641545
0.000613192
0.000581297
0.000544218
0.000723571
0.000672807
0.000636536
0.000640093
0.000672764
0.000710111
0.00074045
0.00076138
0.000773969
0.000779959
0.000780963
0.000778498
0.000774104
0.000769219
0.000764509
0.000761208
0.000758944
0.000757233
0.000754838
0.000750919
0.000744734
0.000735766
0.000723695
0.000708338
0.000689419
0.000667638
0.000643469
0.000616384
0.00058548
0.00054905
0.000775678
0.000726347
0.000674522
0.000644891
0.000654697
0.000685479
0.000717387
0.000741894
0.000757849
0.000766504
0.000769532
0.000768566
0.000765175
0.000761249
0.000757495
0.000754972
0.00075329
0.000752017
0.000750021
0.000746501
0.00074076
0.000732318
0.000720744
0.000705898
0.000687885
0.000667464
0.000644592
0.000618642
0.000588637
0.000552812
0.000824306
0.000780337
0.000727598
0.00067702
0.000654669
0.000667751
0.000695535
0.000721887
0.000740967
0.000752449
0.000757691
0.000758408
0.0007562
0.000752918
0.000749846
0.000747944
0.000746741
0.000745845
0.000744228
0.000741115
0.000735835
0.000727932
0.00071698
0.000702773
0.000686025
0.000666808
0.000645039
0.000620084
0.000590865
0.000555599
0.000871155
0.000831933
0.000783597
0.000727268
0.00067972
0.000664471
0.000678897
0.000702818
0.00072374
0.000737853
0.000745411
0.000747935
0.000747079
0.000744626
0.000741958
0.000740394
0.000739539
0.000738951
0.000737685
0.000734982
0.00073018
0.000722836
0.000712557
0.000699518
0.000683912
0.000665771
0.000644937
0.000620834
0.000592277
0.000557489
0.000916144
0.000880605
0.000837004
0.000782956
0.000724089
0.000681945
0.000673133
0.000687549
0.000707234
0.000723048
0.000732757
0.000737136
0.000737746
0.000736287
0.000734187
0.00073275
0.000731982
0.000731604
0.000730637
0.000728335
0.000724027
0.000717381
0.000708146
0.00069619
0.000681635
0.000664471
0.000644473
0.000621046
0.000593
0.000558652
0.000959039
0.000926267
0.000886419
0.000836571
0.000776498
0.000717889
0.000683395
0.000680053
0.000693419
0.000708803
0.000719994
0.000726096
0.000728193
0.00072786
0.000726484
0.000725346
0.0007247
0.000724363
0.000723602
0.000721694
0.000717996
0.000712125
0.00070383
0.000692898
0.000679337
0.000663072
0.000643818
0.000620933
0.000593215
0.000559219
0.00100028
0.000969281
0.000932008
0.000885818
0.000828519
0.000763988
0.000709696
0.000684227
0.000685006
0.00069647
0.000707704
0.00071506
0.000718542
0.000719386
0.00071887
0.000718196
0.000717781
0.00071756
0.000717
0.000715453
0.000712315
0.000707176
0.000699764
0.000689816
0.000677222
0.000661821
0.000643236
0.000620764
0.000593183
0.000559394
0.00103861
0.00100891
0.000973562
0.000930297
0.000876524
0.000812165
0.000747062
0.000701283
0.000684836
0.000688004
0.000696955
0.000704598
0.000709147
0.000711121
0.000711559
0.000711506
0.000711442
0.000711424
0.000711081
0.000709873
0.000707249
0.0007028
0.00069621
0.000687217
0.000675565
0.00066101
0.000643037
0.000620892
0.000593247
0.000559473
0.00107355
0.00104503
0.00101132
0.000970431
0.000919991
0.000858377
0.000789767
0.000729671
0.000695084
0.000685914
0.000689638
0.000696035
0.000701028
0.000703977
0.000705434
0.000706171
0.000706615
0.000706897
0.000706788
0.000705878
0.000703691
0.000699818
0.000693942
0.000685732
0.000674902
0.000661124
0.000643817
0.000621967
0.000594082
0.00056002
0.00110634
0.00107895
0.00104675
0.00100806
0.00096077
0.000902847
0.000835254
0.000767813
0.000717993
0.000694413
0.000689722
0.000692942
0.000697566
0.000701332
0.000703994
0.000705799
0.00070696
0.00070763
0.000707713
0.000706912
0.000704873
0.00070126
0.000695788
0.000688124
0.000677913
0.000664737
0.000647836
0.000625964
0.000597234
0.000562367
0.00114031
0.00111447
0.00108414
0.00104792
0.0010041
0.000950829
0.000887518
0.000819485
0.000760585
0.000723862
0.000709153
0.000707445
0.000711031
0.000715828
0.000720296
0.000723697
0.00072581
0.000726773
0.000726599
0.000725163
0.000722336
0.000717979
0.000711917
0.000703874
0.000693441
0.000680069
0.000662835
0.000640006
0.000609337
0.000571752
0.00118395
0.00116064
0.00113336
0.00110127
0.00106335
0.0010182
0.000964735
0.000905126
0.000848202
0.000806679
0.000785626
0.000780371
0.000783787
0.000790688
0.000797816
0.00080306
0.000805627
0.000805804
0.000803679
0.000799496
0.00079347
0.000785867
0.000776765
0.000765975
0.000752897
0.000736905
0.000717036
0.000691052
0.000655596
0.000611158
0.00126995
0.00125228
0.00123311
0.00121229
0.00118924
0.00116282
0.00113159
0.00109592
0.00105921
0.00103058
0.00101552
0.00101277
0.00101774
0.00102665
0.00103495
0.00104005
0.00104093
0.0010384
0.00103279
0.00102448
0.00101406
0.0010021
0.000988983
0.000974471
0.000956875
0.000936096
0.000912607
0.000883192
0.000844496
0.000796541
0.00155388
0.00155042
0.00155121
0.00155169
0.00155086
0.00154787
0.00154178
0.00153299
0.00151929
0.0015072
0.00149937
0.00149577
0.0014953
0.00149891
0.0015023
0.00150434
0.0015035
0.00150241
0.00150077
0.0014992
0.0014975
0.00149614
0.00149497
0.00149349
0.00148603
0.0014749
0.00146497
0.00144955
0.00142859
0.00140133
0.000205673
0.000212828
0.000210006
0.000204048
0.000196311
0.000187635
0.000178581
0.000169547
0.000160766
0.000152424
0.000144589
0.000137358
0.000130737
0.000124861
0.000119757
0.000115599
0.000112485
0.000110648
0.000110409
0.000111127
0.000112009
0.000112037
0.000110185
0.000105899
9.89315e-05
8.91469e-05
0.00037291
0.000350231
0.000356509
9.16777e-05
0.000796423
0.000897988
0.000868884
0.000808423
0.000741201
0.000677723
0.000621144
0.000571499
0.000528013
0.000490273
0.000457191
0.000428456
0.000402675
0.000380347
0.000360613
0.000343793
0.000328484
0.000317072
0.000309772
0.000307773
0.000310262
0.000314684
0.000315435
0.000307584
0.000290743
0.000264249
0.000280163
0.000331301
0.000382375
0.000368568
0.00126426
0.00146046
0.00147101
0.0014092
0.00132159
0.00122881
0.00114082
0.00106033
0.000987807
0.000923589
0.000866396
0.000816131
0.000770624
0.000730999
0.000696214
0.000666006
0.000637204
0.000613338
0.000593244
0.000579531
0.000573387
0.000572259
0.000567514
0.000551883
0.000520398
0.000472698
0.000426377
0.000400496
0.000439158
0.000477133
0.00156758
0.00183065
0.00188187
0.00184442
0.00176544
0.00166982
0.00157187
0.00147786
0.00139013
0.00131034
0.00123786
0.00117329
0.00111472
0.00106346
0.00101911
0.000980693
0.000943459
0.000910524
0.000878923
0.000852469
0.000833945
0.000822567
0.000808911
0.000782628
0.000737855
0.000672915
0.000595112
0.000515825
0.000492812
0.00050646
0.0017218
0.00200092
0.00211477
0.00212831
0.00207632
0.00199439
0.00190075
0.00180637
0.0017144
0.00162855
0.00154895
0.00147725
0.00141184
0.00135479
0.0013064
0.0012648
0.00122369
0.00118515
0.00114462
0.00110691
0.00107636
0.00105386
0.00103002
0.000993763
0.000938685
0.000861779
0.000766435
0.000655616
0.000580136
0.000551717
0.00180979
0.00208995
0.00224383
0.0022951
0.00227835
0.00221919
0.00213798
0.00205332
0.00196473
0.00188068
0.00180062
0.00172767
0.00166103
0.00160328
0.00155527
0.0015145
0.00147298
0.00143129
0.00138415
0.00133719
0.00129609
0.00126309
0.00122939
0.00118494
0.00112233
0.00103758
0.000932609
0.000805748
0.000695604
0.000629243
0.00184455
0.00211708
0.00228961
0.00237385
0.00239156
0.00236359
0.00230823
0.00223115
0.00214859
0.00207393
0.00199858
0.00192929
0.00186603
0.00181194
0.00176749
0.00173074
0.00169134
0.00164833
0.00159658
0.00154234
0.00149244
0.00144958
0.00140775
0.00135691
0.00128929
0.00120012
0.0010899
0.000955751
0.000824898
0.000726748
0.0018312
0.002077
0.00226446
0.00238014
0.0024332
0.00243595
0.00240613
0.00235089
0.00228896
0.00221939
0.00214865
0.00208784
0.00203114
0.00198401
0.00194592
0.00191559
0.00188013
0.00183727
0.00178261
0.001723
0.00166593
0.00161586
0.00156706
0.00151099
0.00144026
0.00134922
0.00123738
0.00110078
0.000958114
0.000833551
0.0017394
0.0019718
0.0021773
0.00232509
0.00241479
0.00244953
0.00244781
0.00241982
0.00237622
0.00232189
0.00226619
0.00220994
0.00216103
0.00212291
0.00209354
0.00207122
0.00204108
0.00199966
0.00194352
0.00188061
0.00181977
0.00176419
0.00171032
0.00164984
0.0015767
0.00148548
0.00137479
0.00124017
0.00108965
0.00094242
0.00159096
0.00180932
0.00203691
0.00221721
0.00234574
0.0024147
0.00244479
0.00244461
0.00242396
0.00238766
0.00234537
0.00230019
0.00226072
0.00223203
0.00221317
0.00219972
0.00217597
0.00213711
0.00208072
0.00201643
0.00195215
0.00189306
0.00183575
0.00177395
0.00169995
0.00161047
0.0015017
0.00137099
0.00121618
0.00104853
0.00144549
0.00161904
0.00184514
0.00206193
0.00223504
0.00233927
0.00240381
0.00243291
0.00243657
0.00242048
0.00239365
0.00236213
0.00233327
0.00231638
0.00230754
0.00230332
0.00228648
0.00225104
0.0021959
0.00213179
0.00206602
0.00200384
0.00194526
0.0018837
0.00181279
0.00172344
0.00161611
0.00148827
0.00133065
0.00114779
0.00132626
0.00143415
0.00163381
0.00186475
0.00207297
0.00222719
0.00233012
0.00239008
0.00241873
0.00242401
0.00241464
0.00239824
0.00238226
0.00237648
0.00237865
0.00238408
0.00237421
0.00234297
0.00229043
0.00222801
0.00216241
0.00210015
0.00204171
0.00198068
0.00191044
0.00182306
0.00171909
0.00159262
0.00143225
0.00124009
0.00124353
0.00127969
0.00143142
0.00165156
0.00187909
0.00207352
0.0022208
0.00232025
0.00237455
0.00240199
0.00241146
0.00241146
0.00240946
0.0024159
0.00242882
0.00244351
0.0024408
0.00241461
0.00236547
0.00230617
0.00224339
0.00218189
0.00212207
0.00206208
0.00199339
0.00190988
0.00181216
0.00168385
0.00152035
0.00132089
0.00122734
0.00117669
0.00126385
0.00144723
0.00167352
0.00189407
0.00207784
0.00221528
0.00230669
0.0023579
0.00238707
0.00240437
0.00241719
0.00243639
0.00245972
0.00248329
0.00248798
0.00246778
0.0024224
0.00236661
0.00230362
0.00224126
0.0021826
0.00212692
0.00206185
0.0019832
0.0018899
0.00176088
0.00159446
0.0013891
0.00126672
0.0011534
0.00116042
0.00128201
0.00147938
0.00170586
0.00191406
0.00208275
0.00220816
0.00229303
0.0023447
0.00237924
0.00240758
0.00243959
0.00247271
0.00250505
0.00251738
0.00250407
0.00246374
0.00241224
0.00235363
0.0022916
0.00223217
0.00217511
0.0021166
0.00204698
0.00195372
0.00182382
0.0016546
0.00144429
0.00136781
0.00120256
0.00113088
0.00118029
0.0013234
0.00152839
0.00174357
0.00193365
0.00208731
0.00220284
0.00228385
0.00233862
0.00238245
0.00242694
0.00246967
0.00251046
0.00253059
0.00252479
0.00249093
0.00244455
0.0023905
0.00233342
0.00227452
0.00221743
0.00216279
0.00209901
0.00200499
0.00187357
0.00170139
0.0014867
0.00153907
0.00133635
0.00119741
0.00115423
0.00123057
0.00138344
0.00158269
0.00178024
0.0019534
0.00209428
0.00220206
0.00228248
0.00234367
0.00240024
0.00245237
0.0025013
0.00252925
0.0025315
0.00250533
0.00246485
0.00241639
0.00236438
0.0023108
0.00225614
0.00220355
0.00213931
0.00204478
0.00191126
0.00173586
0.00151704
0.00177742
0.00155083
0.00136019
0.00123541
0.00120839
0.00129635
0.00145102
0.0016367
0.00181696
0.00197526
0.00210514
0.00220865
0.00229158
0.00236128
0.00242272
0.00247949
0.00251522
0.00252597
0.00250856
0.00247483
0.00243306
0.00238727
0.00234133
0.00229248
0.00223917
0.00217101
0.00207405
0.00193808
0.00175926
0.00153648
0.00207313
0.00183303
0.00160743
0.00141626
0.00129722
0.00128014
0.00137091
0.00151961
0.00169008
0.00185482
0.00199982
0.00212204
0.00222421
0.00231171
0.00238307
0.0024472
0.00249065
0.0025103
0.00250274
0.00247691
0.00244332
0.00240595
0.00236823
0.00232504
0.00226862
0.00219556
0.00209493
0.00195587
0.00177321
0.00154654
0.00241118
0.00216441
0.00191648
0.00167831
0.00148114
0.00136629
0.00135598
0.00144682
0.00158666
0.00174318
0.00189371
0.00202829
0.00214557
0.00224811
0.00233366
0.00240654
0.00245794
0.00248673
0.00249025
0.00247441
0.00245015
0.00242103
0.00239078
0.00235002
0.00229177
0.00221427
0.00210988
0.00196694
0.00177974
0.00154897
0.00277144
0.00252254
0.0022609
0.00199173
0.00173746
0.00153775
0.0014316
0.00143045
0.00152005
0.00165147
0.00179494
0.00193336
0.0020595
0.00217276
0.00226961
0.00235296
0.00241442
0.00245289
0.00246765
0.00246302
0.00244831
0.00242723
0.00240324
0.00236405
0.00230669
0.00222923
0.00212158
0.0019738
0.00178114
0.00154568
0.00312741
0.00287972
0.00261105
0.00232345
0.00203208
0.00176944
0.00157823
0.00148647
0.00149894
0.0015881
0.00171071
0.00184185
0.00196817
0.00208489
0.00218664
0.00227492
0.00234365
0.0023912
0.00241723
0.00242572
0.00242242
0.00241232
0.00239409
0.00236335
0.00231254
0.00223521
0.0021256
0.00197573
0.00177839
0.00153797
0.00344523
0.0032022
0.00293339
0.0026386
0.00232768
0.00202528
0.00176998
0.00159734
0.00153069
0.00155622
0.001641
0.0017519
0.00186599
0.00197418
0.00206899
0.0021526
0.00222104
0.0022728
0.00230881
0.00233145
0.00234419
0.00235034
0.00234842
0.00233332
0.00229722
0.00222863
0.00211895
0.00196592
0.00176888
0.00152576
0.00368232
0.00344973
0.00318955
0.00289945
0.00258521
0.00226433
0.0019682
0.00173286
0.00159209
0.00154864
0.00157653
0.00164626
0.00172973
0.00181143
0.0018835
0.00194904
0.00200575
0.00205641
0.00209971
0.00213735
0.00217053
0.00219934
0.00222151
0.00223187
0.00222195
0.00217961
0.0020889
0.00194421
0.00174556
0.00150568
0.00379044
0.0035778
0.00333783
0.00306583
0.00276388
0.00244339
0.00212806
0.00185055
0.00164769
0.00153376
0.00149498
0.00150367
0.00153799
0.00157882
0.00162071
0.0016629
0.00170428
0.00174727
0.00179164
0.00183854
0.00188626
0.00193466
0.00198138
0.00202114
0.00204538
0.00204161
0.00199299
0.00188023
0.00170468
0.0014733
0.00373203
0.00355357
0.00334805
0.00310885
0.00283498
0.00253348
0.00222261
0.00193119
0.00169401
0.00153024
0.00143655
0.00139319
0.00138856
0.00140476
0.00143406
0.00146751
0.00149928
0.00153095
0.0015653
0.00160066
0.00163833
0.0016795
0.0017237
0.00176788
0.00180555
0.00182609
0.00181362
0.00174854
0.00160779
0.0014174
0.00352489
0.003398
0.00324464
0.00305692
0.00283238
0.0025774
0.00230856
0.00205219
0.0018359
0.00167647
0.00157276
0.00151995
0.0015103
0.00152799
0.00156221
0.00159748
0.0016245
0.00164688
0.00166521
0.0016792
0.00169082
0.00170238
0.00171488
0.00172744
0.00173646
0.00173489
0.00171007
0.00164475
0.00151646
0.00133153
0.00332836
0.00326386
0.00317319
0.00305002
0.0028927
0.00270981
0.00251671
0.00233165
0.00217209
0.00204818
0.00196456
0.00192439
0.00191906
0.00193765
0.00196943
0.00200104
0.00202353
0.00204216
0.00205406
0.00206057
0.00206264
0.0020617
0.00205787
0.00204948
0.00203293
0.00200254
0.00194701
0.00184829
0.00168559
0.00145761
0.0032369
0.00321411
0.00318414
0.00312968
0.00304699
0.00294212
0.00282165
0.00270085
0.00259005
0.00249752
0.00243198
0.00239509
0.00238194
0.00238711
0.00240171
0.0024199
0.00243473
0.00245027
0.00246364
0.00247652
0.00248903
0.00250108
0.00251134
0.00251687
0.00251371
0.00249749
0.00245804
0.00237917
0.00224713
0.00206293
0.00323114
0.00323033
0.00322893
0.00320791
0.0031648
0.00310967
0.0030422
0.00296912
0.00289646
0.0028353
0.00278452
0.00274778
0.00272478
0.00271511
0.00271298
0.00271946
0.00272861
0.00274256
0.00276045
0.00278327
0.00281015
0.00283981
0.00286983
0.00289776
0.0029208
0.00293872
0.00294278
0.00292426
0.00288809
0.00282961
0.000236732
0.000243979
0.000239005
0.000231753
0.000222866
0.000213017
0.000202782
0.000192589
0.00018269
0.000173286
0.000164441
0.000156269
0.000148749
0.000142061
0.000136245
0.000131567
0.000128223
0.000127065
0.000128625
0.000131858
0.000134601
0.000135219
0.000132732
0.000126512
0.000116105
0.000100981
7.95631e-05
0.000359388
8.71887e-05
9.39576e-05
0.00102451
0.00117427
0.00117811
0.00111336
0.00102912
0.000946044
0.000870419
0.00080392
0.000745308
0.000693923
0.000647784
0.000606563
0.000567699
0.000532644
0.000499502
0.000469268
0.000440194
0.000421813
0.000416374
0.000424663
0.000441249
0.000458065
0.000462273
0.00044503
0.000406155
0.00035179
0.000288823
0.000341694
0.000323317
0.000373406
0.0016434
0.00193001
0.00199947
0.00195304
0.00185657
0.00174419
0.00163159
0.00152608
0.00142906
0.00134123
0.0012605
0.00118696
0.00111693
0.00105308
0.000993519
0.000937776
0.000881967
0.000840799
0.000815248
0.000809889
0.000821272
0.000838619
0.000836513
0.000804319
0.000738184
0.000639751
0.000523731
0.00045216
0.000443381
0.000531691
0.00210045
0.00244297
0.00255954
0.00254975
0.00246928
0.00235897
0.00223769
0.00211701
0.00200127
0.00189325
0.00179188
0.00169824
0.00160901
0.00152718
0.0014519
0.00138113
0.00130853
0.0012485
0.00120276
0.00117905
0.00117624
0.001184
0.00117513
0.00113117
0.001044
0.000915842
0.000760428
0.000610938
0.000541319
0.000584545
0.00240568
0.00275508
0.00291876
0.00295268
0.00289991
0.00280679
0.00269257
0.00257232
0.00245146
0.00233577
0.00222513
0.00212198
0.00202317
0.00193291
0.00185131
0.00177399
0.00169139
0.00161569
0.00155152
0.00150892
0.0014913
0.00148761
0.0014704
0.00141818
0.00131971
0.00117477
0.000995212
0.000801418
0.000669204
0.000649584
0.00259132
0.00292252
0.00311811
0.00319588
0.00318692
0.00312035
0.0030218
0.00291311
0.00279583
0.00268229
0.00257098
0.00246644
0.0023663
0.00227566
0.00219457
0.00211665
0.00202809
0.00193921
0.00185803
0.00179871
0.00176654
0.00175136
0.00172735
0.00166979
0.00156697
0.0014153
0.00122392
0.00100633
0.000828511
0.000754501
0.00272884
0.0030349
0.00323308
0.00333609
0.00336059
0.00332935
0.00325872
0.00315937
0.00304916
0.0029471
0.00284157
0.00274226
0.00264753
0.00256324
0.00248753
0.00241343
0.00232139
0.00222116
0.00212508
0.00205131
0.00200566
0.0019796
0.00194963
0.0018915
0.00178847
0.00163723
0.00144331
0.00121557
0.00100817
0.000889669
0.00282089
0.0030684
0.00326057
0.0033845
0.00344153
0.00344372
0.0034039
0.00333072
0.00324736
0.00314926
0.00304671
0.00295917
0.00287438
0.00280153
0.0027359
0.00266881
0.00257479
0.00246496
0.00235648
0.00227029
0.00221307
0.00217696
0.00214149
0.00208465
0.0019867
0.00184127
0.00165338
0.00142544
0.00119839
0.00104188
0.00280738
0.00301925
0.00320854
0.00335411
0.00344417
0.00348091
0.00347447
0.00343178
0.00336947
0.00329161
0.00321144
0.00312795
0.0030538
0.00299645
0.00294447
0.00288584
0.00279164
0.00267399
0.00255613
0.00245981
0.00239266
0.00234756
0.00230758
0.00225259
0.00216492
0.00202825
0.00184612
0.00162455
0.00139042
0.00119888
0.00271075
0.00289512
0.00308598
0.0032563
0.00338034
0.00345362
0.00348167
0.00347252
0.00343651
0.00338202
0.00331988
0.0032535
0.00319678
0.00315314
0.00311716
0.00306787
0.00297395
0.0028517
0.00272707
0.00262367
0.00254873
0.00249544
0.00245249
0.00240065
0.00232031
0.00219326
0.00202178
0.00181008
0.00157472
0.00135539
0.00258711
0.00273195
0.00291342
0.00310081
0.00325938
0.0033714
0.00343674
0.00346104
0.00345555
0.00342722
0.00338694
0.00334169
0.00330207
0.00327823
0.00325718
0.00321763
0.00312588
0.00300147
0.00287312
0.00276578
0.00268492
0.00262574
0.00258127
0.00252971
0.0024537
0.00233883
0.00218099
0.00198058
0.00174853
0.00151102
0.00246261
0.00254455
0.00270383
0.00290078
0.00308997
0.00324184
0.00334715
0.00340668
0.00343254
0.00343315
0.00341757
0.00339547
0.00337674
0.00337213
0.00336722
0.00333793
0.0032494
0.0031262
0.00299728
0.00288883
0.00280454
0.00274357
0.00269352
0.0026409
0.00256873
0.00246457
0.00232298
0.00213264
0.00190518
0.00165862
0.0023548
0.00235167
0.00247525
0.00266949
0.00288175
0.00307063
0.00321631
0.00331533
0.00337487
0.00340508
0.00341619
0.00341905
0.00342313
0.00343879
0.00345006
0.00343063
0.00334806
0.00322808
0.00310286
0.00299614
0.00290942
0.00284181
0.0027878
0.0027362
0.00266837
0.00257715
0.00244675
0.00226592
0.00204313
0.00179051
0.00227149
0.00218493
0.00225543
0.00242758
0.0026486
0.00286692
0.00305078
0.00318928
0.00328571
0.00334876
0.00338751
0.0034161
0.00344401
0.00347946
0.00350765
0.00349827
0.00342468
0.00330962
0.00318797
0.00308183
0.00299325
0.00292294
0.00286618
0.00281749
0.00275533
0.00267661
0.00255554
0.00238138
0.00216212
0.00190505
0.00227235
0.002091
0.00208258
0.00220522
0.00241197
0.00264449
0.00285921
0.00303467
0.00316802
0.00326522
0.0033352
0.00338988
0.00344169
0.00349676
0.00354189
0.00354339
0.00348171
0.00337529
0.0032616
0.00316056
0.00307186
0.00299911
0.0029411
0.00289055
0.00283619
0.00276175
0.0026471
0.00247888
0.00226209
0.00200132
0.002346
0.00211121
0.00199901
0.00204178
0.00220276
0.00242453
0.00265487
0.00285995
0.00302749
0.00315853
0.00326021
0.00334321
0.00341859
0.003493
0.00355427
0.00356819
0.00352096
0.00342701
0.00332249
0.00322808
0.0031441
0.00307181
0.00301438
0.00296242
0.00290992
0.00283553
0.0027235
0.00255994
0.00234374
0.00207925
0.00250586
0.00222819
0.00203746
0.00197987
0.00206136
0.00223696
0.0024577
0.00267761
0.0028719
0.00303365
0.00316597
0.00327716
0.00337665
0.00346966
0.00354642
0.00357423
0.00354356
0.00346558
0.00337204
0.00328553
0.00320842
0.00314175
0.00308558
0.00303097
0.00297474
0.0028984
0.002786
0.00262444
0.00240751
0.00213911
0.0027716
0.00246534
0.00221039
0.00205117
0.00201625
0.00211772
0.00229439
0.00250515
0.00271206
0.00289709
0.00305637
0.00319384
0.0033162
0.00342744
0.00351878
0.0035615
0.00354892
0.00349021
0.00340962
0.00333347
0.00326507
0.00320592
0.00315027
0.00309153
0.00303022
0.00295037
0.00283545
0.00267266
0.00245424
0.00218171
0.00312528
0.00280261
0.00250267
0.00225881
0.00211216
0.00208922
0.00219552
0.00236417
0.00256173
0.00275706
0.00293582
0.00309483
0.00323658
0.00336487
0.00346849
0.00352624
0.00353231
0.00349625
0.00343107
0.00336798
0.00330934
0.00325644
0.00320058
0.0031396
0.00307477
0.00299126
0.00287258
0.00270643
0.00248525
0.00220824
0.00353077
0.00320092
0.00287284
0.00256863
0.00232591
0.00218645
0.00217344
0.00227539
0.00243557
0.00262245
0.00280821
0.00297977
0.00313559
0.00327467
0.00338601
0.00345623
0.00348096
0.00346756
0.00342296
0.00337397
0.00332594
0.00327721
0.00322695
0.00317391
0.00310938
0.00302253
0.00289884
0.00272769
0.00250179
0.00222031
0.0039443
0.00361306
0.00326949
0.00292737
0.00261581
0.00237612
0.00224841
0.00224489
0.00234254
0.00250058
0.00267428
0.00284392
0.00300213
0.00314333
0.00325183
0.00332815
0.00336927
0.00337782
0.00335659
0.00332718
0.00329522
0.00326255
0.00322596
0.00318036
0.00311944
0.00303741
0.00291362
0.00273925
0.0025075
0.00222026
0.00431769
0.00398981
0.00364114
0.00327977
0.00292651
0.00261526
0.00238885
0.00227913
0.0022856
0.00237716
0.00252226
0.00267266
0.00281464
0.00293658
0.00303583
0.00311056
0.00316529
0.00318987
0.00319448
0.00319076
0.00318292
0.00317352
0.00315961
0.00313455
0.00308512
0.00300155
0.00288427
0.00272116
0.00249312
0.00220623
0.00460152
0.00428318
0.00393989
0.00357556
0.00320415
0.00285077
0.00255257
0.00234765
0.00225579
0.00226135
0.00233909
0.00244266
0.00254954
0.00264486
0.00272006
0.00278777
0.00284492
0.00288502
0.00291287
0.00293704
0.00295808
0.0029779
0.00299366
0.00299811
0.00297874
0.00291729
0.00280759
0.00264571
0.00243797
0.00216752
0.00474978
0.00445075
0.00412503
0.00377335
0.00340411
0.00303457
0.00269357
0.00241662
0.00223323
0.00214649
0.00213503
0.00217103
0.00222948
0.00229353
0.0023562
0.00241774
0.0024735
0.00252165
0.00256381
0.00260662
0.00264772
0.0026893
0.0027292
0.00276076
0.00277266
0.00274875
0.00267001
0.00253387
0.0023368
0.00208667
0.00473305
0.00446702
0.00417381
0.0038513
0.00350356
0.00314227
0.00278945
0.00247616
0.00223423
0.00207734
0.00199294
0.00197239
0.00199651
0.00204492
0.00211135
0.00217436
0.00222807
0.00227337
0.00231568
0.00235475
0.00239134
0.0024282
0.00246532
0.00249838
0.00251869
0.0025132
0.00246493
0.00235676
0.00218988
0.00197853
0.00456345
0.00434865
0.00410702
0.00383359
0.00352958
0.00320466
0.00287759
0.00257686
0.00233269
0.00215686
0.00204689
0.00200875
0.00202378
0.00207281
0.00214568
0.00221
0.00225795
0.0022942
0.00232468
0.00234604
0.00236107
0.00237248
0.00238167
0.00238676
0.00238201
0.00235792
0.00229994
0.00219392
0.00202641
0.00182709