/*--------------------------------*- C++ -*----------------------------------*\
| =========                 |                                                 |
| \\      /  F ield         | OpenFOAM: The Open Source CFD Toolbox           |
|  \\    /   O peration     | Version:  5.0                                   |
|   \\  /    A nd           | Web:      www.OpenFOAM.org                      |
|    \\/     M anipulation  |                                                 |
\*---------------------------------------------------------------------------*/
FoamFile
{
    version     2.0;
    format      ascii;
    class       volScalarField;
    location    "1800/air";
    object      epsilon;
}
// * * * * * * * * * * * * * * * * * * * * * * * * * * * * * * * * * * * * * //

dimensions      [0 2 -3 0 0 0 0];

internalField   nonuniform List<scalar> 
243000
(
3.54367
4.338
4.73159
4.96425
5.04826
5.01412
4.88091
4.67032
4.40284
4.10034
3.7793
3.45312
3.12597
2.80829
2.5067
2.23235
1.99238
1.9083
1.72364
1.68979
1.58536
1.37128
1.24218
1.12652
0.984839
0.858145
0.174697
0.142488
0.114541
0.504268
1.85224
2.19455
2.27109
2.25477
2.18042
2.0692
1.93597
1.79217
1.64489
1.49991
1.36018
1.228
1.10357
0.989649
0.887351
0.798404
0.723186
0.667382
0.626767
0.603132
0.582718
0.556699
0.51985
0.467675
0.406108
0.340763
0.274241
0.206948
0.159355
0.205712
2.3233
2.72348
2.84115
2.83244
2.74708
2.61363
2.45152
2.27471
2.0924
1.91234
1.73826
1.57343
1.41866
1.27776
1.15229
1.04437
0.954146
0.886147
0.838426
0.807216
0.781743
0.751432
0.706515
0.642763
0.562709
0.471759
0.376992
0.280513
0.210301
0.21628
2.55789
2.99977
3.16192
3.18531
3.11716
2.98989
2.82488
2.63799
2.44031
2.24145
2.04683
1.86134
1.68662
1.52772
1.38694
1.26703
1.16798
1.09418
1.04214
1.00586
0.974492
0.937122
0.883274
0.807711
0.712309
0.602247
0.485338
0.365251
0.274552
0.233659
2.60249
3.04875
3.27924
3.35401
3.32272
3.22142
3.07212
2.8924
2.69491
2.4911
2.28809
2.09248
1.90716
1.7385
1.58945
1.4637
1.36106
1.28553
1.23154
1.19136
1.15387
1.10866
1.04571
0.959659
0.851885
0.727166
0.593433
0.454
0.345592
0.277267
2.51575
2.95745
3.24118
3.37648
3.39543
3.33239
3.21176
3.05162
2.8662
2.66857
2.4671
2.27023
2.0822
1.91087
1.75937
1.63301
1.53105
1.45684
1.40264
1.35942
1.31607
1.26303
1.19139
1.09625
0.978712
0.842962
0.696623
0.542276
0.418249
0.330144
2.32823
2.77511
3.10238
3.29165
3.36444
3.34858
3.26277
3.12925
2.96506
2.7823
2.59035
2.39941
2.21508
2.04678
1.89773
1.77495
1.67701
1.60629
1.5532
1.50777
1.45914
1.39883
1.31931
1.21645
1.09133
0.947489
0.791925
0.627067
0.489516
0.384071
2.07098
2.52786
2.88912
3.12782
3.25386
3.28666
3.24381
3.14431
3.00362
2.84076
2.66466
2.48538
2.30988
2.14886
2.00628
1.89026
1.79888
1.73318
1.68218
1.63537
1.58233
1.5157
1.42937
1.32019
1.1893
1.03976
0.877805
0.705823
0.557723
0.435839
1.78014
2.24303
2.62947
2.90978
3.08507
3.16503
3.16614
3.10426
2.99651
2.85689
2.69734
2.5337
2.37082
2.22042
2.08726
1.9803
1.89724
1.83752
1.78937
1.74201
1.6856
1.61385
1.52201
1.40793
1.27289
1.11959
0.953651
0.775804
0.62023
0.486213
1.5198
1.96278
2.35341
2.6612
2.87723
3.00089
3.04459
3.02188
2.94729
2.8353
2.69947
2.55105
2.40242
2.26492
2.1432
2.04681
1.97304
1.91987
1.87509
1.828
1.76935
1.69386
1.59797
1.48045
1.34278
1.18786
1.01821
0.837509
0.677047
0.533813
1.29941
1.7018
2.09087
2.41255
2.64981
2.80963
2.89202
2.9072
2.86646
2.78325
2.67071
2.54291
2.41014
2.28587
2.17676
2.09168
2.02759
1.98116
1.94013
1.89406
1.83436
1.75656
1.65816
1.53873
1.40024
1.24366
1.07183
0.89202
0.728582
0.578412
1.13502
1.46344
1.8385
2.17099
2.42939
2.61072
2.72111
2.76943
2.76146
2.70714
2.61918
2.51161
2.39617
2.28724
2.19065
2.11696
2.06241
2.02268
1.98557
1.9412
1.88159
1.80301
1.70363
1.5841
1.44517
1.28787
1.11491
0.938892
0.77458
0.619495
1.04718
1.26037
1.59828
1.93364
2.21152
2.41583
2.54867
2.61886
2.63931
2.6127
2.54924
2.46258
2.36468
2.27077
2.18724
2.12467
2.07921
2.04588
2.01276
1.97065
1.91223
1.83443
1.73594
1.61672
1.47825
1.32117
1.14821
0.97814
0.814799
0.65652
1.05746
1.11778
1.38088
1.70199
1.99406
2.2215
2.37821
2.47022
2.50903
2.50584
2.46539
2.39935
2.31892
2.2398
2.16894
2.11685
2.07951
2.05231
2.02316
1.98405
1.92799
1.85171
1.75455
1.63695
1.50007
1.34425
1.17593
1.01115
0.849558
0.689333
1.18201
1.07136
1.21074
1.48543
1.77848
2.02602
2.20725
2.32236
2.38094
2.39422
2.37243
2.32534
2.26186
2.19689
2.13801
2.09557
2.06571
2.04389
2.01858
1.982
1.92808
1.85436
1.75988
1.64514
1.51114
1.35789
1.19785
1.03845
0.879123
0.717869
1.41681
1.16146
1.128
1.30605
1.57284
1.83058
2.03449
2.17353
2.25321
2.28403
2.27674
2.24437
2.19617
2.14447
2.09664
2.0629
2.03966
2.0226
2.00094
1.96769
1.91695
1.84595
1.7544
1.64272
1.51195
1.36472
1.21375
1.06017
0.903616
0.74211
1.74371
1.40094
1.18521
1.20411
1.39705
1.64206
1.86105
2.02293
2.1246
2.17403
2.18221
2.16141
2.12489
2.08489
2.04696
2.02087
2.00337
1.99045
1.97229
1.94241
1.89544
1.82839
1.74039
1.63241
1.50554
1.36751
1.2246
1.07673
0.923229
0.762052
2.14938
1.76397
1.41145
1.23219
1.28813
1.47748
1.69278
1.87169
1.99465
2.06345
2.08774
2.07968
2.05213
2.02068
1.99104
1.9715
1.95881
1.94947
1.93464
1.9082
1.86514
1.80271
1.71913
1.61555
1.49532
1.36634
1.23093
1.08855
0.938215
0.777834
2.58053
2.18851
1.77293
1.42681
1.2887
1.36634
1.54314
1.72454
1.8644
1.95204
1.99283
1.99826
1.98071
1.95498
1.93124
1.91685
1.90804
1.90173
1.89002
1.86705
1.82805
1.77038
1.69224
1.594
1.48307
1.3622
1.23342
1.09613
0.948897
0.789669
3.04711
2.65313
2.21602
1.77012
1.44342
1.34702
1.43552
1.59177
1.73754
1.84071
1.89752
1.9166
1.90985
1.89103
1.87084
1.85928
1.85323
1.84933
1.84043
1.82092
1.78608
1.73332
1.661
1.57181
1.46928
1.35576
1.23278
1.10008
0.955715
0.797779
3.54523
3.14778
2.70206
2.21026
1.74636
1.45703
1.39987
1.49067
1.62161
1.73225
1.80256
1.83478
1.83914
1.82815
1.8126
1.80217
1.79686
1.79455
1.78801
1.77177
1.74113
1.69413
1.63008
1.54931
1.45452
1.34774
1.23006
1.10119
0.959238
0.80273
4.06831
3.66461
3.21079
2.69766
2.15534
1.70105
1.46566
1.44295
1.52875
1.63206
1.7101
1.75359
1.7686
1.76606
1.75607
1.74799
1.74362
1.74162
1.73665
1.72351
1.69773
1.65692
1.60022
1.52724
1.43972
1.33915
1.22626
1.10057
0.960306
0.805141
4.61786
4.2008
3.73355
3.20418
2.61989
2.05182
1.64251
1.47029
1.47418
1.54859
1.62414
1.67491
1.69922
1.70506
1.70137
1.69672
1.69402
1.69284
1.68935
1.67896
1.6575
1.62238
1.57241
1.50676
1.42616
1.33147
1.22287
1.09965
0.960165
0.805873
5.17118
4.73909
4.25705
3.71296
3.1038
2.46668
1.91719
1.58381
1.47354
1.4931
1.55143
1.60255
1.63347
1.64696
1.64994
1.64966
1.64941
1.64962
1.64766
1.63976
1.62214
1.59221
1.54834
1.48958
1.41555
1.32647
1.22168
1.10031
0.960497
0.806205
5.71288
5.26839
4.77346
4.21606
3.59038
2.91384
2.26668
1.78507
1.54127
1.47988
1.50331
1.54496
1.57807
1.59783
1.60767
1.61275
1.61595
1.61817
1.61779
1.61199
1.59753
1.57177
1.533
1.47973
1.4112
1.32702
1.22603
1.10601
0.964589
0.808584
6.25502
5.80032
5.29483
4.72732
4.0908
3.39221
2.68298
2.08118
1.6995
1.536
1.50411
1.52461
1.55489
1.57992
1.59784
1.61014
1.6182
1.62304
1.62392
1.61881
1.60529
1.5812
1.54495
1.49496
1.4299
1.34867
1.249
1.12742
0.980076
0.818793
6.85145
6.39424
5.88438
5.31207
4.67105
3.96374
3.22041
2.53178
2.02129
1.74042
1.6352
1.62259
1.64685
1.68004
1.71148
1.73576
1.75103
1.75815
1.75715
1.7471
1.72716
1.69655
1.65443
1.5995
1.52999
1.44379
1.33749
1.20487
1.04091
0.860615
7.66984
7.22329
6.72341
6.16592
5.5481
4.86808
4.13745
3.41296
2.80482
2.40978
2.22401
2.17842
2.20632
2.26455
2.32597
2.37191
2.39463
2.39623
2.37747
2.34082
2.28866
2.22394
2.14807
2.06036
1.95728
1.83595
1.69233
1.51615
1.29617
1.05118
9.45769
9.06514
8.65219
8.21811
7.75497
7.24587
6.67319
6.05639
5.46177
5.02541
4.80409
4.76246
4.83099
4.95764
5.07785
5.15268
5.16531
5.12748
5.04485
4.92419
4.77577
4.60916
4.43098
4.2394
4.01473
3.75978
3.48506
3.16068
2.7658
2.32365
17.2369
17.1207
17.1455
17.1595
17.1288
17.0258
16.8202
16.5273
16.0797
15.6907
15.4407
15.3246
15.3065
15.4151
15.5183
15.5802
15.5535
15.5191
15.468
15.4194
15.3671
15.3256
15.2898
15.2449
15.019
14.6847
14.3914
13.9441
13.3526
12.6135
6.31374
8.14433
9.07686
9.6137
9.82841
9.78423
9.53767
9.14217
8.63737
8.05977
7.43408
6.79108
6.14608
5.53122
4.96123
4.4622
4.04396
3.73321
3.52745
3.38301
3.20804
2.92674
2.51129
1.99005
1.43538
0.922737
0.174753
0.144856
0.131557
0.561982
3.96908
4.6186
5.04186
5.28458
5.37187
5.32304
5.16312
4.92269
4.62739
4.29811
3.95172
3.60305
3.26448
2.94858
2.667
2.43084
2.24751
2.12936
2.08058
2.06897
2.03199
1.9184
1.71145
1.42814
1.10205
0.778008
0.44164
0.279923
0.312927
0.265118
3.49763
3.95155
4.24034
4.40159
4.45792
4.42063
4.30134
4.11799
3.88793
3.62771
3.35137
3.07168
2.79925
2.54612
2.3226
2.14097
2.00718
1.93064
1.9128
1.92569
1.91504
1.83718
1.67552
1.43861
1.15877
0.867243
0.58605
0.371997
0.33667
0.288951
3.20698
3.5776
3.81975
3.95907
4.01626
4.00079
3.91711
3.77606
3.59048
3.37416
3.13945
2.89839
2.66057
2.4396
2.24568
2.09153
1.98243
1.92608
1.92015
1.93777
1.93258
1.86578
1.72167
1.5082
1.24989
0.972412
0.700548
0.460812
0.342289
0.274549
2.9333
3.2353
3.46136
3.60487
3.67919
3.69214
3.64384
3.54089
3.39364
3.2141
3.01343
2.8031
2.59311
2.39754
2.22671
2.09425
2.00472
1.96358
1.96485
1.98181
1.9744
1.90969
1.77488
1.57612
1.33313
1.06799
0.802858
0.552477
0.3878
0.293682
2.6304
2.87973
3.10528
3.26536
3.36575
3.40978
3.39611
3.32905
3.21739
3.07179
2.90259
2.72091
2.53663
2.36459
2.2153
2.10313
2.03185
2.00456
2.01108
2.02543
2.01311
1.94685
1.81752
1.62938
1.39996
1.14786
0.891822
0.641159
0.456149
0.341516
2.29654
2.51204
2.74371
2.92671
3.05692
3.13224
3.14879
3.11572
3.03855
2.92582
2.78729
2.63378
2.47449
2.32538
2.19713
2.10478
2.05121
2.0369
2.04769
2.05887
2.0409
1.97264
1.84593
1.66632
1.44964
1.21123
0.967115
0.723547
0.531651
0.4025
1.94316
2.13879
2.3826
2.59105
2.75134
2.85357
2.89637
2.89523
2.85053
2.76972
2.66233
2.53664
2.40249
2.2757
2.16807
2.095
2.05846
2.05617
2.07062
2.07874
2.05568
1.98397
1.85949
1.68799
1.4837
1.25943
1.02862
0.796614
0.605985
0.46771
1.59631
1.77982
2.0358
2.26709
2.45395
2.57597
2.64526
2.67364
2.6599
2.60847
2.5286
2.42962
2.32049
2.21529
2.12756
2.07298
2.05231
2.06073
2.07855
2.08378
2.0548
1.98042
1.85803
1.69518
1.50399
1.29415
1.0774
0.859985
0.67573
0.532604
1.33458
1.49328
1.73437
1.97126
2.17426
2.31097
2.40502
2.45875
2.47218
2.44779
2.3932
2.31731
2.23014
2.14551
2.07647
2.03921
2.03272
2.05041
2.07134
2.07419
2.0422
1.96618
1.8467
1.69129
1.51276
1.31728
1.1148
0.913489
0.738689
0.594042
1.15908
1.2837
1.50188
1.73414
1.92935
2.07147
2.18239
2.25545
2.29054
2.28899
2.25569
2.20055
2.13349
2.06805
2.01622
1.99456
2.00037
2.0258
2.04926
2.05056
2.01682
1.94214
1.82653
1.67956
1.51173
1.33047
1.14225
0.957438
0.793193
0.651155
1.04804
1.12663
1.31651
1.54097
1.73311
1.87521
1.98728
2.06959
2.11915
2.13399
2.11903
2.0821
2.03292
1.98468
1.94844
1.9402
1.95629
1.98774
2.01316
2.01374
1.97981
1.90769
1.7984
1.66092
1.50419
1.33549
1.16189
0.993077
0.839661
0.702644
0.992939
1.01396
1.16563
1.37495
1.56736
1.7164
1.82839
1.90897
1.9624
1.98742
1.98664
1.96478
1.93085
1.89741
1.87476
1.87755
1.90166
1.93743
1.96422
1.9649
1.93231
1.86425
1.76354
1.63602
1.49069
1.33392
1.17649
1.02205
0.879033
0.747952
1.01486
0.953502
1.04708
1.22526
1.41724
1.58035
1.69786
1.7769
1.82731
1.85444
1.86204
1.85145
1.82969
1.80834
1.79686
1.80816
1.83795
1.87639
1.90399
1.90549
1.87551
1.81302
1.72136
1.60521
1.47189
1.32819
1.18626
1.04527
0.912116
0.787234
1.11209
0.973756
0.986901
1.11339
1.28297
1.45676
1.58509
1.66558
1.71421
1.74006
1.74941
1.74512
1.7319
1.71958
1.71659
1.73378
1.76694
1.80649
1.83443
1.83734
1.81111
1.75533
1.67325
1.56945
1.44874
1.32013
1.19219
1.06359
0.939608
0.820706
1.29087
1.08852
1.00171
1.05284
1.18346
1.34535
1.48232
1.56851
1.6181
1.6433
1.65215
1.64894
1.64005
1.63343
1.63593
1.65644
1.6908
1.73001
1.75781
1.76261
1.74089
1.6927
1.62085
1.52961
1.42301
1.30969
1.19478
1.0776
0.962074
0.848674
1.55059
1.30749
1.12751
1.06704
1.12994
1.25388
1.38725
1.48081
1.53451
1.5607
1.56947
1.56573
1.55702
1.55232
1.55725
1.57857
1.61212
1.64968
1.6769
1.68376
1.66698
1.6269
1.56582
1.48742
1.39651
1.29761
1.19454
1.08786
0.980026
0.871475
1.88706
1.6246
1.37863
1.20068
1.1485
1.20379
1.30817
1.40218
1.46062
1.48945
1.49906
1.49522
1.48567
1.47905
1.48348
1.50322
1.53417
1.56894
1.59507
1.60393
1.59228
1.56069
1.51103
1.44674
1.37052
1.28489
1.19273
1.09513
0.994026
0.889558
2.29002
2.01997
1.73965
1.46886
1.28434
1.22775
1.26525
1.33929
1.39699
1.42823
1.4394
1.43619
1.42641
1.41737
1.41868
1.43457
1.46142
1.49246
1.51707
1.5278
1.52148
1.49917
1.46097
1.4094
1.34683
1.27295
1.19032
1.10031
1.00473
0.903491
2.75451
2.48012
2.183
1.85551
1.55407
1.3598
1.28987
1.3086
1.35002
1.37871
1.39065
1.38852
1.37941
1.3694
1.36816
1.37943
1.40133
1.42806
1.45119
1.464
1.46264
1.44781
1.4194
1.37974
1.32823
1.26387
1.1887
1.10463
1.01307
0.913956
3.27818
2.99928
2.68997
2.32917
1.94487
1.61745
1.41695
1.33704
1.33275
1.34751
1.35631
1.35476
1.34744
1.33868
1.33765
1.34671
1.36496
1.38775
1.40859
1.4217
1.42333
1.4142
1.39436
1.36351
1.31881
1.26054
1.19037
1.11022
1.02064
0.922107
3.86643
3.58142
3.25776
2.87082
2.43057
1.99636
1.6585
1.45374
1.37032
1.34913
1.34685
1.34395
1.34002
1.33621
1.34028
1.3523
1.37018
1.38996
1.40757
1.41859
1.42099
1.41424
1.39886
1.37222
1.33131
1.27531
1.20516
1.12325
1.03119
0.929929
4.54284
4.24887
3.906
3.49051
3.00556
2.49135
2.03143
1.6917
1.50129
1.4182
1.39025
1.38335
1.386
1.39429
1.4132
1.43719
1.46094
1.48083
1.49435
1.49994
1.49712
1.48587
1.46653
1.43535
1.39027
1.32937
1.25187
1.15937
1.05394
0.941957
5.36821
5.06226
4.69542
4.2471
3.72057
3.14466
2.58603
2.11839
1.80635
1.63926
1.57019
1.556
1.57544
1.61332
1.66906
1.7244
1.76587
1.79084
1.79705
1.78632
1.76184
1.72641
1.68099
1.62452
1.55507
1.46996
1.36706
1.24732
1.11108
0.970171
6.49531
6.17821
5.7885
5.31133
4.75352
4.13866
3.51412
2.94553
2.52122
2.26596
2.15389
2.14501
2.21618
2.33534
2.48827
2.62464
2.70937
2.74162
2.72141
2.65452
2.55368
2.43107
2.29601
2.15313
2.00206
1.83972
1.66199
1.46812
1.25632
1.04684
8.31204
7.99937
7.61313
7.14677
6.61404
6.03415
5.43466
4.86185
4.41236
4.14233
4.06063
4.15819
4.41821
4.78832
5.21629
5.5663
5.74893
5.77237
5.63631
5.36628
5.00306
4.58845
4.15728
3.73044
3.31458
2.90791
2.50242
2.09248
1.67149
1.27606
11.8912
11.65
11.3666
11.0467
10.7245
10.421
10.1358
9.88846
9.74466
9.78298
10.0716
10.6494
11.5018
12.5405
13.613
14.4115
14.7691
14.7115
14.2302
13.4
12.3185
11.1005
9.84028
8.5994
7.40644
6.26957
5.17964
4.11645
3.06381
2.11078
20.0931
20.0415
20.0514
20.1465
20.4344
20.9346
21.5887
22.2801
23.0319
23.9686
25.2067
26.814
28.7197
30.7602
32.6115
33.8582
34.3559
34.1115
33.087
31.4136
29.2334
26.7422
24.1009
21.4077
18.7094
16.0413
13.414
10.7761
8.09942
5.63694
35.3037
35.4222
36.107
37.1785
38.709
40.5
42.221
43.8389
45.3133
46.9604
48.9214
51.1011
53.2576
55.2293
56.5646
57.1091
57.0487
56.2979
54.8698
52.8782
50.4542
47.7506
44.8678
41.8133
38.5425
35.0377
31.2885
27.2002
22.7033
18.2835
43.0695
43.3566
44.9943
47.0424
48.8161
50.0132
50.7853
51.437
52.2
53.3748
54.8245
56.1396
56.9446
57.3017
56.7421
55.5841
54.514
53.2603
51.9097
50.5134
49.1998
48.0215
46.9881
46.0257
44.9993
43.8657
42.6117
41.2665
39.7572
37.6628
9.62859
12.2699
13.3805
14.0857
14.3808
14.316
13.9644
13.3989
12.6745
11.8425
10.9356
9.99967
9.05221
8.14632
7.30531
6.57829
5.98997
5.64313
5.57825
5.64155
5.55414
5.14338
4.39034
3.39473
2.32164
1.34012
0.749871
0.149998
0.566705
0.604512
5.62942
6.36346
6.73486
6.99112
7.09104
7.03336
6.84378
6.55203
6.18752
5.77377
5.33277
4.88189
4.43871
4.01742
3.64099
3.32709
3.10299
3.02382
3.12556
3.30309
3.37407
3.23473
2.8849
2.38688
1.80626
1.20675
0.689977
0.339885
0.370794
0.272901
5.08037
5.52666
5.77535
5.9092
5.93291
5.85316
5.68535
5.44564
5.15026
4.81536
4.45807
4.09287
3.73466
3.39725
3.09917
2.8601
2.70097
2.66632
2.78265
2.96323
3.0587
2.98016
2.73049
2.3372
1.85439
1.3387
0.850996
0.469299
0.385615
0.307386
4.79905
5.12153
5.3281
5.43624
5.45219
5.38378
5.24199
5.03838
4.78446
4.49296
4.17861
3.85481
3.53526
3.23605
2.97513
2.77192
2.64412
2.6307
2.74244
2.90327
2.99279
2.93413
2.71857
2.37549
1.94814
1.47605
1.00811
0.597922
0.40134
0.301661
4.52673
4.75119
4.93595
5.04899
5.0843
5.04617
4.93865
4.77172
4.55534
4.30109
4.02223
3.73139
3.44331
3.17453
2.94312
2.76965
2.66934
2.67422
2.77929
2.91697
2.9862
2.92617
2.72834
2.41677
2.02709
1.59055
1.14547
0.726462
0.462262
0.322815
4.19578
4.33795
4.51286
4.64498
4.71369
4.71641
4.65004
4.52313
4.34532
4.12828
3.88462
3.62665
3.36921
3.13026
2.92815
2.78465
2.7125
2.73482
2.83347
2.94643
2.99203
2.92171
2.73043
2.44153
2.08204
1.67798
1.25932
0.850474
0.550754
0.375934
3.82113
3.89003
4.05439
4.20875
4.31673
4.363
4.34258
4.25837
4.12105
3.94296
3.73605
3.5127
3.28699
3.07915
2.90785
2.79594
2.75327
2.79249
2.88488
2.97383
2.99474
2.91095
2.72132
2.4466
2.11398
1.74059
1.35024
0.961585
0.64907
0.447938
3.41291
3.42105
3.5728
3.74774
3.89457
3.98451
4.00957
3.97025
3.87539
3.7373
3.56832
3.38114
3.18937
3.01384
2.87498
2.79591
2.78351
2.83862
2.92483
2.99147
2.98831
2.89073
2.70096
2.43745
2.12658
1.78189
1.42022
1.0566
0.746377
0.527567
2.97319
2.94145
3.08504
3.27818
3.45943
3.58976
3.65684
3.66173
3.60968
3.51212
3.38197
3.23148
3.07514
2.93302
2.82766
2.78261
2.79946
2.86899
2.94874
2.99522
2.9704
2.86034
2.67009
2.41726
2.12364
1.80545
1.47161
1.13535
0.835803
0.60837
2.5205
2.47087
2.61304
2.82205
3.02945
3.19272
3.29701
3.34072
3.32988
3.27205
3.18027
3.0664
2.9456
2.83799
2.76629
2.75513
2.80011
2.88104
2.95462
2.98266
2.9391
2.81975
2.62989
2.38787
2.11107
1.81495
1.50757
1.19809
0.913297
0.684361
2.14314
2.07086
2.20023
2.4091
2.6282
2.81119
2.94404
3.01959
3.04403
3.0234
2.96822
2.8898
2.80368
2.73044
2.69217
2.71349
2.783
2.87299
2.94031
2.95194
2.89383
2.76788
2.58132
2.35069
2.0903
1.81335
1.53254
1.24671
0.977951
0.752334
1.84554
1.74189
1.8484
2.04837
2.27047
2.46568
2.61468
2.71101
2.76262
2.77348
2.75152
2.70619
2.65292
2.61276
2.60653
2.65781
2.74795
2.84404
2.90507
2.90296
2.83455
2.70555
2.52552
2.30686
2.06293
1.80559
1.54891
1.28321
1.03004
0.810932
1.62767
1.48515
1.55849
1.73967
1.95692
2.1575
2.31682
2.42836
2.49707
2.53073
2.53631
2.5203
2.49712
2.48788
2.51028
2.58829
2.69457
2.79436
2.84848
2.83635
2.76187
2.63356
2.46255
2.25729
2.03055
1.79459
1.55622
1.30884
1.07044
0.859539
1.492
1.30753
1.33494
1.48399
1.68674
1.88664
2.05196
2.17343
2.25546
2.30476
2.32925
2.33702
2.34022
2.35779
2.40513
2.50548
2.62321
2.72428
2.77188
2.75323
2.67681
2.55285
2.3926
2.2031
1.99524
1.78005
1.55592
1.32507
1.10038
0.898436
1.46037
1.2295
1.19103
1.28981
1.46304
1.65333
1.81998
1.94748
2.03846
2.09925
2.13778
2.16178
2.18563
2.22511
2.29325
2.4107
2.53534
2.63572
2.67789
2.65606
2.58146
2.46511
2.31786
2.14653
1.96037
1.7616
1.55101
1.33385
1.12135
0.928372
1.52266
1.26756
1.14985
1.17396
1.29676
1.46189
1.62171
1.75093
1.84728
1.91582
1.9645
2
2.03769
2.0932
2.17752
2.30644
2.43403
2.5321
2.57047
2.54852
2.47908
2.37336
2.2418
2.09241
1.92536
1.74077
1.54233
1.33632
1.13471
0.950319
1.68126
1.40899
1.22676
1.15928
1.20768
1.32396
1.46215
1.58563
1.68302
1.75584
1.81122
1.85517
1.9017
1.96662
2.06188
2.197
2.32429
2.41918
2.45561
2.43628
2.37521
2.28318
2.17211
2.04291
1.89102
1.71899
1.53107
1.33443
1.14199
0.965415
1.9566
1.67061
1.43692
1.27693
1.21925
1.26097
1.35338
1.45728
1.54854
1.62131
1.68017
1.72983
1.78317
1.85177
1.95295
2.08983
2.21461
2.30613
2.34273
2.32905
2.28065
2.20711
2.11362
1.9993
1.85995
1.69816
1.51881
1.33001
1.14467
0.974879
2.3504
2.04875
1.77626
1.5368
1.36803
1.29877
1.3157
1.37796
1.45041
1.51646
1.57511
1.62821
1.68712
1.76
1.86271
1.99811
2.11998
2.20852
2.24864
2.24593
2.21107
2.15142
2.07087
1.96658
1.83585
1.68112
1.50768
1.32458
1.14431
0.980023
2.85677
2.53579
2.22986
1.92839
1.65874
1.46722
1.37626
1.36592
1.40179
1.45028
1.50385
1.55855
1.6235
1.70442
1.81324
1.94659
2.06813
2.15668
2.20193
2.20714
2.18113
2.13008
2.05412
1.95203
1.82418
1.67183
1.5006
1.32036
1.14314
0.982422
3.47702
3.13057
2.78914
2.43516
2.08315
1.77621
1.56227
1.4524
1.4238
1.44064
1.48336
1.53929
1.61403
1.70913
1.83439
1.9766
2.1028
2.19203
2.23938
2.24828
2.22483
2.1737
2.09543
1.98802
1.84893
1.68427
1.50512
1.32128
1.14346
0.984062
4.22755
3.84854
3.46542
3.05975
2.63847
2.23384
1.90035
1.67554
1.56151
1.52951
1.55253
1.61178
1.70539
1.82987
1.99187
2.16209
2.30211
2.39724
2.44409
2.44803
2.41293
2.34389
2.24396
2.11347
1.9517
1.76198
1.55399
1.3468
1.15559
0.989659
5.15675
4.73854
4.30766
3.84815
3.36501
2.88158
2.44675
2.11054
1.90102
1.80975
1.80865
1.88089
2.01598
2.20194
2.44505
2.68011
2.85678
2.96505
3.00556
2.98405
2.90521
2.77932
2.61616
2.42161
2.19894
1.95306
1.69319
1.4377
1.20433
1.01148
6.38231
5.92185
5.44321
4.93424
4.40146
3.86378
3.36088
2.94204
2.65382
2.51391
2.50676
2.62856
2.86472
3.1928
3.61382
3.99383
4.25049
4.38188
4.39452
4.29086
4.08906
3.8136
3.49089
3.13984
2.77175
2.39519
2.01981
1.66319
1.34146
1.08286
8.17803
7.68743
7.18045
6.64965
6.10565
5.56815
5.06921
4.65006
4.36553
4.25597
4.33624
4.62874
5.12363
5.78453
6.59187
7.26873
7.67645
7.83376
7.74184
7.41584
6.90352
6.26301
5.55906
4.84033
4.13368
3.45502
2.81334
2.22269
1.69954
1.28149
11.199
10.7285
10.255
9.78247
9.33129
8.92921
8.60765
8.3967
8.34304
8.51113
8.94801
9.70901
10.792
12.13
13.6397
14.8025
15.4205
15.5623
15.2024
14.4015
13.2492
11.8621
10.3729
8.88314
7.45046
6.10708
4.86299
3.72291
2.70412
1.88574
16.9919
16.6436
16.313
16.0541
15.9041
15.9088
16.1015
16.481
17.0708
17.933
19.1448
20.7794
22.8225
25.1323
27.4909
29.108
29.8397
29.8225
29.0106
27.5245
25.4866
23.066
20.437
17.7568
15.1179
12.578
10.178
7.89068
5.742
3.93065
28.0232
27.9974
28.0417
28.2125
28.6438
29.4032
30.4237
31.6588
33.1097
34.8617
36.9869
39.5296
42.4112
45.3268
47.8296
49.0289
49.2968
48.7365
47.4205
45.4531
42.9551
40.0596
36.8674
33.4516
29.8385
26.0586
22.2607
18.3587
14.3792
10.7376
43.1914
43.2226
44.1458
45.5308
47.0497
48.5319
49.9875
51.4886
53.1356
55.0972
57.3795
59.837
62.1991
63.8988
64.3264
63.0751
61.7267
60.0573
58.3204
56.459
54.6047
52.8085
51.0285
49.109
46.8754
44.189
40.7632
36.7886
32.2202
27.5051
47.6005
48.2697
50.0315
52.174
54.1023
55.5172
56.4674
57.2657
58.2065
59.4789
60.935
62.1747
62.8041
62.5616
61.0085
58.1236
55.8022
53.5786
51.7516
50.2444
49.182
48.5346
48.2273
48.0677
47.8513
47.447
46.8246
45.9934
44.9109
43.4841
13.2103
16.6216
17.881
18.5454
18.8357
18.7255
18.2679
17.5425
16.6115
15.5374
14.3542
13.1212
11.8533
10.6297
9.48344
8.50382
7.77292
7.6336
8.20577
8.96513
9.17964
8.59509
7.32472
5.63355
3.80018
2.11171
0.838682
0.147261
0.562895
0.611658
7.49042
8.32959
8.68417
8.86316
8.92419
8.8331
8.59286
8.23128
7.78003
7.26545
6.71303
6.14027
5.57307
5.02548
4.53724
4.13125
3.8812
3.96505
4.46914
5.05836
5.30694
5.09511
4.5252
3.73924
2.83938
1.87452
0.995261
0.414427
0.344669
0.262413
6.80258
7.24045
7.45137
7.5406
7.52316
7.39979
7.17799
6.8699
6.49383
6.06709
5.60944
5.13504
4.66658
4.2202
3.82821
3.5157
3.3397
3.4455
3.88829
4.40066
4.65064
4.532
4.12468
3.53967
2.81259
2.00834
1.22525
0.583978
0.379849
0.287814
6.52666
6.78105
6.95289
7.03493
7.01962
6.9099
6.71351
6.43935
6.10223
5.71646
5.29983
4.86517
4.43537
4.03016
3.68073
3.41201
3.27598
3.39889
3.79115
4.22717
4.44993
4.35675
4.01764
3.50275
2.86712
2.15032
1.4224
0.748955
0.425831
0.295068
6.25927
6.38914
6.54427
6.64484
6.66244
6.59036
6.4302
6.19148
5.88917
5.5373
5.15261
4.74889
4.35013
3.97659
3.66109
3.431
3.33609
3.47979
3.83477
4.20148
4.37394
4.27695
3.96092
3.48631
2.91193
2.26078
1.58245
0.915708
0.509228
0.32668
5.91435
5.95053
6.09548
6.2271
6.29095
6.2701
6.15613
5.95916
5.69564
5.38033
5.03015
4.65859
4.29181
3.95091
3.67084
3.48257
3.43437
3.60252
3.9239
4.22511
4.34041
4.2246
3.91274
3.46347
2.93152
2.3364
1.70769
1.07031
0.618887
0.386538
5.49596
5.45528
5.58946
5.752
5.86655
5.90045
5.84041
5.69172
5.47317
5.19993
4.89024
4.55472
4.22318
3.91942
3.67973
3.53917
3.54383
3.73716
4.0265
4.26146
4.32041
4.17598
3.86148
3.42951
2.92734
2.38167
1.80188
1.20555
0.739499
0.466948
5.02269
4.9138
5.03505
5.22318
5.38596
5.47342
5.47146
5.3768
5.20822
4.98213
4.71811
4.42539
4.13322
3.87113
3.67834
3.5919
3.65243
3.8685
4.1254
4.29761
4.30016
4.12423
3.80408
3.38522
2.90922
2.4033
1.87021
1.3208
0.859083
0.558328
4.50879
4.33404
4.44762
4.65629
4.86076
4.99931
5.05316
5.01588
4.90125
4.72644
4.51229
4.2674
4.01951
3.80367
3.66278
3.6365
3.75397
3.98696
4.20935
4.32233
4.27174
4.06601
3.74012
3.33276
2.88018
2.40622
1.9181
1.41462
0.96879
0.651602
3.97056
3.74411
3.84903
4.0737
4.31073
4.49394
4.59981
4.61771
4.55865
4.43748
4.27617
4.08275
3.88394
3.71839
3.63384
3.67158
3.84287
4.08463
4.27073
4.3278
4.23002
3.99967
3.67008
3.27437
2.844
2.40007
1.95363
1.48832
1.06359
0.739577
3.43105
3.18893
3.27971
3.50527
3.76205
3.97912
4.13027
4.19626
4.19123
4.12361
4.0161
3.876
3.72921
3.61817
3.59277
3.69586
3.91365
4.15453
4.30206
4.30812
4.17167
3.92399
3.59455
3.21225
2.80416
2.39079
1.97484
1.54237
1.14051
0.818243
2.9709
2.69935
2.76523
2.97921
3.24245
3.4819
3.66619
3.77109
3.81216
3.79532
3.73997
3.65305
3.55965
3.50606
3.54024
3.70715
3.96049
4.18978
4.30081
4.26106
4.09543
3.83828
3.51464
3.14865
2.7645
2.37693
1.98135
1.57789
1.19919
0.884823
2.59258
2.28568
2.31729
2.50807
2.76563
3.01624
3.22197
3.36109
3.43916
3.46419
3.45657
3.42028
3.3804
3.38442
3.4771
3.70258
3.97784
4.19117
4.26165
4.18676
4.00211
3.74394
3.43233
3.08634
2.72766
2.35681
1.9769
1.59735
1.24064
0.937856
2.29409
1.95955
1.94726
2.10282
2.34165
2.59191
2.8098
2.97454
3.08309
3.14405
3.17501
3.18388
3.19683
3.25514
3.40457
3.67885
3.9616
4.15052
4.18676
4.08765
3.89467
3.64409
3.35118
3.03088
2.69147
2.33183
1.96488
1.60271
1.26651
0.977351
2.09844
1.74066
1.67035
1.77754
1.98196
2.21824
2.43861
2.61838
2.7517
2.84232
2.90605
2.95176
3.01287
3.12265
3.32426
3.63437
3.91157
4.07429
4.08231
3.96999
3.77978
3.54505
3.27904
2.98213
2.65374
2.30328
1.94669
1.59811
1.27926
1.0043
2.02081
1.65613
1.51075
1.5523
1.70239
1.90714
2.11719
2.30142
2.45052
2.56494
2.65547
2.73252
2.83504
2.99247
3.23935
3.57093
3.83319
3.97051
3.95971
3.84552
3.66933
3.46201
3.22062
2.93736
2.61646
2.27262
1.92395
1.5868
1.28077
1.02015
2.06895
1.71015
1.50511
1.45142
1.52383
1.67492
1.85688
2.03322
2.18812
2.31826
2.43091
2.53587
2.67136
2.87238
3.15639
3.49656
3.73939
3.85528
3.83811
3.73469
3.58922
3.40553
3.17581
2.89845
2.58174
2.24168
1.89856
1.57061
1.27563
1.02712
2.24057
1.88306
1.6315
1.49298
1.46932
1.54318
1.6739
1.82516
1.97422
2.11133
2.2409
2.37049
2.53813
2.77401
3.08843
3.42902
3.65363
3.75735
3.75083
3.67835
3.55095
3.36982
3.14653
2.86963
2.55278
2.21324
1.87306
1.55187
1.26603
1.02699
2.56959
2.20302
1.90901
1.6901
1.56228
1.53088
1.58961
1.69328
1.82159
1.95604
2.09733
2.24907
2.45255
2.71733
3.0607
3.4014
3.61821
3.72877
3.75041
3.68732
3.55284
3.3795
3.14278
2.85758
2.535
2.19165
1.85098
1.53359
1.25436
1.02344
3.06918
2.67437
2.33541
2.04376
1.81481
1.67171
1.62514
1.65976
1.75018
1.87181
2.02036
2.19685
2.4376
2.74632
3.12448
3.47556
3.71401
3.84179
3.87352
3.8014
3.66672
3.48906
3.22726
2.89991
2.54343
2.18372
1.83745
1.51973
1.24362
1.01844
3.73619
3.30073
2.91136
2.55234
2.2328
1.97907
1.8199
1.76178
1.79229
1.88836
2.04646
2.25641
2.55157
2.92439
3.37077
3.76743
4.04074
4.18432
4.20248
4.11374
3.97567
3.7513
3.43532
3.05415
2.63858
2.22502
1.84755
1.51633
1.23767
1.01463
4.59249
4.10627
3.66027
3.23615
2.83775
2.48679
2.21921
2.06296
2.02263
2.0882
2.25812
2.51757
2.89767
3.38065
3.95456
4.44783
4.7845
4.9301
4.92469
4.82213
4.63104
4.29523
3.8652
3.38251
2.88096
2.39039
1.94012
1.55755
1.25235
1.0188
5.70378
5.16091
4.65584
4.17088
3.70743
3.28168
2.92819
2.68763
2.58664
2.6303
2.8355
3.18822
3.71795
4.39212
5.20279
5.87125
6.31899
6.45383
6.43778
6.28888
5.92201
5.37028
4.72287
4.04638
3.38274
2.75897
2.19436
1.71727
1.33623
1.05718
7.22594
6.63059
6.07549
5.546
5.04375
4.58208
4.19207
3.91911
3.80669
3.88569
4.19666
4.74101
5.54956
6.56406
7.78979
8.73793
9.36266
9.52048
9.52042
9.13097
8.41073
7.46435
6.4278
5.39618
4.4272
3.54768
2.76739
2.10627
1.5742
1.1903
9.51199
8.88748
8.31402
7.78311
7.29999
6.87983
6.55418
6.37046
6.37985
6.64895
7.23101
8.15813
9.46613
11.0495
12.9115
14.2122
15.0706
15.3567
15.1194
14.3193
13.0384
11.4517
9.78523
8.15619
6.64184
5.28437
4.08106
3.04254
2.18857
1.558
13.2898
12.7253
12.1938
11.7456
11.3936
11.1582
11.0777
11.2047
11.5971
12.3199
13.4361
15.0068
17.0729
19.4383
22.0472
23.6125
24.5787
24.7767
24.1704
22.8551
20.9119
18.529
16.0629
13.6072
11.262
9.115
7.1489
5.37072
3.82562
2.63747
19.8271
19.4751
19.1618
18.9147
18.8536
18.9968
19.4071
20.1102
21.1365
22.5456
24.3871
26.7369
29.6354
32.702
35.7635
36.7744
36.8865
36.233
35.1281
33.5416
31.5377
29.1594
26.2772
23.179
19.9925
16.9255
13.9041
10.9493
8.15925
5.85928
30.3434
30.2054
30.3471
30.7074
31.1401
31.7921
32.7585
34.0289
35.618
37.582
39.9447
42.7571
45.9835
48.8873
50.7992
49.1377
47.6858
45.9996
44.4904
42.9183
41.3226
39.6277
37.7583
35.595
33.0239
29.82
26.2093
22.2621
18.1018
14.3782
42.072
42.2377
43.1206
44.3448
45.6416
46.9111
48.1146
49.412
50.9388
52.7494
54.8333
57.1282
59.379
60.2744
59.6188
55.1063
52.0899
49.4832
47.6681
46.3045
45.4508
44.9482
44.6167
44.1914
43.3951
42.0623
40.035
37.381
33.9975
30.3758
43.953
45.0073
46.7874
48.7974
50.6299
52.0845
53.1811
54.1447
55.2061
56.4929
57.8703
58.9934
59.5535
58.5615
55.5997
49.5596
45.823
42.8782
41.0011
39.8032
39.3633
39.6148
40.3648
41.2853
42.1056
42.6546
42.8385
42.6786
42.2294
41.5438
17.4156
21.5654
22.8853
23.3963
23.546
23.3065
22.6859
21.7596
20.5893
19.2404
17.7398
16.1566
14.5018
12.888
11.3664
10.0921
9.29337
9.89329
12.0804
14.2715
14.9135
13.9153
11.8102
9.14909
6.29243
3.58411
1.47369
0.151738
0.130423
0.579058
9.61508
10.4988
10.7978
10.873
10.8495
10.6993
10.398
9.96163
9.42074
8.79903
8.12488
7.4104
6.6936
5.98346
5.35099
4.81705
4.56165
5.05039
6.39134
7.6698
8.09034
7.67955
6.776
5.63947
4.37694
2.99587
1.62353
0.499504
0.239753
0.245339
8.71003
9.08217