/*--------------------------------*- C++ -*----------------------------------*\
| =========                 |                                                 |
| \\      /  F ield         | OpenFOAM: The Open Source CFD Toolbox           |
|  \\    /   O peration     | Version:  5.0                                   |
|   \\  /    A nd           | Web:      www.OpenFOAM.org                      |
|    \\/     M anipulation  |                                                 |
\*---------------------------------------------------------------------------*/
FoamFile
{
    version     2.0;
    format      ascii;
    class       volScalarField;
    location    "1800/air";
    object      k;
}
// * * * * * * * * * * * * * * * * * * * * * * * * * * * * * * * * * * * * * //

dimensions      [0 2 -2 0 0 0 0];

internalField   nonuniform List<scalar> 
243000
(
0.0755863
0.084332
0.0871744
0.0878767
0.0868434
0.0845824
0.0813933
0.0775549
0.0732983
0.0688526
0.0643724
0.0599752
0.0556731
0.0515533
0.0476617
0.0441174
0.041008
0.0400169
0.0375956
0.0374625
0.0364901
0.0337224
0.0318519
0.030056
0.0277896
0.0258361
0.0245635
0.0215832
0.018571
0.0203398
0.114057
0.127709
0.130661
0.130033
0.127159
0.122797
0.117468
0.111576
0.105376
0.09909
0.092836
0.0867199
0.0807585
0.0751003
0.0698314
0.065083
0.0609266
0.0574874
0.0553836
0.0537197
0.0524824
0.0511378
0.0488878
0.0456303
0.0415615
0.0367739
0.0318924
0.0264439
0.022231
0.0264248
0.132658
0.147484
0.151701
0.151391
0.148334
0.14349
0.137493
0.1308
0.123715
0.116512
0.109329
0.102303
0.0954795
0.089048
0.0831185
0.0778437
0.0732907
0.0697416
0.0672323
0.0655263
0.0641338
0.0624788
0.0599635
0.0562955
0.0515143
0.0457878
0.0394321
0.032375
0.026727
0.027266
0.141445
0.157299
0.162917
0.163719
0.161375
0.156952
0.151123
0.144381
0.137075
0.129523
0.121913
0.114431
0.107154
0.100313
0.094051
0.0885477
0.0838675
0.0802908
0.0777204
0.075898
0.0743057
0.0723895
0.0695839
0.0655519
0.0602779
0.0538912
0.0466642
0.0386031
0.0319199
0.0286947
0.143087
0.159009
0.166925
0.169451
0.168395
0.164955
0.159818
0.153522
0.146452
0.138972
0.131315
0.12372
0.116303
0.10934
0.102997
0.0974885
0.0928727
0.0893994
0.0868721
0.0849653
0.0831662
0.0809734
0.0778724
0.0735347
0.0679156
0.0611081
0.053359
0.0446292
0.0372111
0.0321415
0.139891
0.15582
0.165632
0.170209
0.170845
0.168723
0.164626
0.159107
0.152595
0.145497
0.138078
0.130632
0.123315
0.116453
0.110213
0.104869
0.100453
0.0971746
0.0947422
0.0927786
0.0907879
0.0883253
0.0849469
0.0803568
0.0745
0.0674355
0.0593792
0.0502414
0.0422581
0.036093
0.132851
0.149349
0.16087
0.167348
0.169805
0.16927
0.166366
0.161795
0.156085
0.149603
0.142641
0.135542
0.128508
0.121913
0.115918
0.11086
0.106739
0.103711
0.101406
0.0994109
0.0972543
0.0945483
0.0909241
0.0861291
0.0801116
0.0729019
0.0646795
0.0553518
0.0469308
0.0399255
0.122876
0.140341
0.153412
0.161749
0.166065
0.167179
0.165722
0.162315
0.157436
0.151693
0.145357
0.138762
0.13215
0.125934
0.120298
0.115611
0.11185
0.109103
0.106945
0.104943
0.102654
0.0997441
0.0959133
0.0909592
0.0848378
0.0775621
0.0692763
0.0598956
0.0511942
0.0434341
0.111084
0.129591
0.144078
0.154143
0.160272
0.163029
0.163067
0.160935
0.157189
0.152267
0.146544
0.140555
0.134465
0.128715
0.123514
0.119254
0.115891
0.113438
0.11144
0.109457
0.107073
0.104005
0.100015
0.0949467
0.0887687
0.081484
0.0732124
0.0637929
0.0549508
0.0467168
0.0999703
0.118559
0.133809
0.145235
0.152991
0.157344
0.158867
0.158076
0.155464
0.1515
0.146622
0.141197
0.135657
0.13043
0.125711
0.12191
0.118957
0.116803
0.114971
0.11303
0.110591
0.107415
0.103316
0.0981805
0.0919899
0.0847647
0.0764812
0.0671367
0.0582587
0.0497167
0.0900559
0.107801
0.123662
0.136041
0.14482
0.150585
0.153515
0.154051
0.152609
0.149641
0.145579
0.140897
0.135949
0.131233
0.127021
0.123685
0.12114
0.119276
0.117615
0.115737
0.113284
0.11005
0.105895
0.100741
0.0945966
0.0873998
0.0791441
0.0700212
0.0611797
0.0524481
0.0822912
0.0974839
0.113499
0.126801
0.136673
0.143392
0.147406
0.149146
0.14886
0.146901
0.143702
0.13974
0.135424
0.131286
0.127561
0.12468
0.122522
0.120936
0.119444
0.117649
0.11522
0.111982
0.107822
0.102712
0.0966096
0.0894592
0.0812514
0.0724541
0.0637289
0.0549032
0.0779902
0.0882435
0.103384
0.117382
0.128375
0.136164
0.141111
0.14369
0.144437
0.143465
0.141133
0.137916
0.134235
0.130656
0.127429
0.124982
0.123187
0.121859
0.120532
0.118837
0.116468
0.11328
0.109182
0.104118
0.098079
0.090995
0.0828615
0.0744602
0.0659167
0.0570698
0.0785019
0.0814567
0.0937825
0.107809
0.119814
0.12876
0.134747
0.138201
0.139645
0.139527
0.138022
0.135546
0.132499
0.129466
0.126718
0.124676
0.123199
0.122115
0.120947
0.119375
0.117108
0.113991
0.109961
0.104985
0.0990419
0.0920523
0.084193
0.0761274
0.067779
0.0589563
0.0845529
0.0791881
0.0859121
0.098458
0.111015
0.121091
0.12821
0.13263
0.134851
0.135353
0.13453
0.132744
0.130317
0.127808
0.125511
0.12384
0.122654
0.121781
0.120765
0.119293
0.117112
0.1141
0.110184
0.105335
0.0995288
0.0926742
0.0852377
0.0774928
0.0693432
0.0605729
0.09541
0.0835709
0.0819547
0.0903631
0.102283
0.113173
0.121429
0.126901
0.129984
0.131167
0.130889
0.129645
0.127782
0.125767
0.123887
0.122549
0.121621
0.120934
0.120061
0.118719
0.116661
0.113755
0.109956
0.105232
0.0995647
0.0929868
0.0859922
0.0785711
0.0706259
0.0619292
0.109573
0.0946981
0.0847066
0.0856
0.094513
0.105262
0.114425
0.120969
0.12499
0.126922
0.12724
0.126431
0.125002
0.123427
0.121923
0.12088
0.120175
0.11965
0.118913
0.1177
0.115788
0.113033
0.10937
0.104792
0.0992832
0.0931151
0.086505
0.0793883
0.0716447
0.0630338
0.125967
0.110421
0.0951714
0.0869297
0.0895361
0.0981065
0.10742
0.114862
0.11984
0.122581
0.123542
0.123224
0.122133
0.12088
0.119693
0.118904
0.118387
0.118003
0.117396
0.116316
0.114552
0.111973
0.108478
0.10407
0.0988356
0.093063
0.086804
0.079969
0.0724183
0.063901
0.142292
0.127492
0.110796
0.095861
0.0895666
0.0931247
0.100992
0.10876
0.114564
0.118128
0.119769
0.119987
0.119283
0.118247
0.117285
0.116697
0.116334
0.11607
0.115585
0.114639
0.113029
0.110632
0.107345
0.103144
0.0982967
0.0928765
0.0869218
0.0803402
0.0729671
0.0645475
0.158962
0.144949
0.128559
0.110679
0.0966034
0.0922479
0.0962417
0.103103
0.109306
0.113593
0.115919
0.116695
0.116421
0.115654
0.114827
0.11435
0.114096
0.113929
0.113556
0.112744
0.111294
0.109084
0.106021
0.102186
0.0976877
0.0925843
0.0868922
0.0805335
0.0733162
0.0649886
0.175843
0.162444
0.146726
0.128337
0.109688
0.0972086
0.0946449
0.0986916
0.104389
0.109085
0.112019
0.11335
0.11353
0.113077
0.112432
0.111997
0.111772
0.11167
0.111391
0.110708
0.10942
0.107436
0.104704
0.10121
0.0970338
0.0922198
0.0867652
0.0805877
0.073496
0.0652581
0.192737
0.179768
0.164605
0.146568
0.126204
0.107782
0.0975911
0.0965762
0.100365
0.104838
0.108154
0.109981
0.110608
0.110502
0.110083
0.109742
0.109555
0.109465
0.10925
0.108691
0.107597
0.105859
0.103423
0.100249
0.0963759
0.0918287
0.086587
0.0805577
0.0735503
0.0653895
0.20972
0.196898
0.182016
0.16438
0.14374
0.122132
0.105295
0.0977961
0.0979645
0.101233
0.1045
0.106667
0.107697
0.107943
0.107786
0.107586
0.107468
0.107413
0.107259
0.106812
0.105893
0.104386
0.102224
0.0993527
0.0957716
0.0914787
0.0864282
0.0805132
0.0735429
0.06543
0.226152
0.213375
0.198652
0.181347
0.160932
0.138083
0.11673
0.102771
0.0979391
0.0988013
0.101358
0.103572
0.104901
0.105477
0.105603
0.105589
0.105575
0.105579
0.105489
0.105145
0.104384
0.10309
0.101181
0.0985986
0.0952978
0.0912508
0.0863727
0.0805455
0.0735596
0.0654488
0.241678
0.228977
0.214405
0.197376
0.177336
0.1543
0.130516
0.111305
0.100921
0.0982194
0.0992516
0.101076
0.102515
0.103369
0.103792
0.104009
0.104143
0.104234
0.104213
0.103957
0.103329
0.102209
0.100514
0.0981657
0.0951048
0.0912773
0.0865788
0.0808237
0.0737681
0.0655781
0.256732
0.244137
0.229742
0.213023
0.193449
0.170752
0.146041
0.123296
0.107718
0.10069
0.0992884
0.100188
0.10151
0.102596
0.103369
0.103898
0.104241
0.104445
0.104478
0.104253
0.103666
0.10262
0.10104
0.0988415
0.095946
0.0922702
0.0876583
0.0818639
0.074555
0.06613
0.272798
0.260526
0.24649
0.230241
0.21133
0.189425
0.16494
0.140503
0.120919
0.109438
0.104979
0.104436
0.105473
0.106885
0.108214
0.109234
0.109872
0.110166
0.11012
0.109695
0.108853
0.107557
0.105763
0.103402
0.100377
0.0965632
0.0917544
0.085573
0.0776088
0.0683627
0.294106
0.28258
0.269392
0.254291
0.237012
0.217232
0.194919
0.171449
0.150428
0.135948
0.128865
0.127095
0.128176
0.130421
0.132768
0.134509
0.135365
0.135423
0.134712
0.13332
0.131327
0.128834
0.125881
0.122424
0.118298
0.113349
0.107347
0.099747
0.0898303
0.078116
0.338192
0.32877
0.318711
0.307963
0.296284
0.283175
0.268055
0.251276
0.23455
0.221883
0.215317
0.214068
0.216114
0.219874
0.223413
0.225602
0.22597
0.224864
0.22244
0.218876
0.214452
0.209431
0.203993
0.198064
0.190995
0.182813
0.173784
0.162809
0.148927
0.132596
0.504581
0.502306
0.502794
0.503069
0.502469
0.500455
0.496419
0.490641
0.481742
0.473939
0.46889
0.466536
0.466168
0.46837
0.470459
0.471708
0.471169
0.470475
0.469439
0.468455
0.467392
0.466548
0.465819
0.464904
0.460291
0.453432
0.447366
0.438035
0.425542
0.409686
0.111088
0.128343
0.134589
0.136532
0.135404
0.132079
0.127218
0.12136
0.114865
0.10804
0.101058
0.0941419
0.0873735
0.0810026
0.0751302
0.070003
0.0657367
0.0626418
0.0608237
0.0597572
0.0584199
0.0558047
0.0512619
0.0447355
0.036721
0.0279478
0.0248757
0.0219554
0.0211311
0.022154
0.17332
0.198525
0.204031
0.201484
0.19451
0.185145
0.174564
0.163496
0.152364
0.141497
0.131017
0.121107
0.111753
0.10322
0.0955864
0.0891014
0.0837451
0.0800844
0.0782436
0.0777708
0.0773815
0.075719
0.0716015
0.0645864
0.0551592
0.044183
0.0342765
0.029679
0.0337335
0.0304939
0.20499
0.234179
0.243457
0.242773
0.236603
0.227188
0.215927
0.203684
0.191022
0.178418
0.166092
0.154327
0.143156
0.132972
0.123941
0.116385
0.110224
0.106057
0.10382
0.102956
0.102122
0.0999236
0.095027
0.0868296
0.075671
0.0623905
0.0487099
0.0376143
0.0374835
0.0362051
0.21857
0.249469
0.26135
0.26341
0.25956
0.251944
0.241871
0.230263
0.217764
0.204953
0.192148
0.179742
0.167854
0.156992
0.147447
0.139587
0.133291
0.129068
0.12661
0.125259
0.123721
0.120729
0.115003
0.105872
0.0935806
0.0788245
0.0629174
0.0475095
0.0400293
0.0363475
0.219078
0.248022
0.263734
0.270001
0.269415
0.264507
0.256525
0.246514
0.235108
0.223
0.21058
0.198339
0.186492
0.175659
0.166233
0.158623
0.152651
0.148676
0.146156
0.144345
0.142069
0.13825
0.131762
0.121958
0.109008
0.0934843
0.076438
0.0586463
0.0462238
0.0392303
0.212695
0.239147
0.25731
0.266851
0.269928
0.268133
0.26265
0.254841
0.245063
0.234274
0.222828
0.211323
0.200065
0.189772
0.18091
0.173942
0.168607
0.165082
0.162601
0.160386
0.157417
0.152818
0.145669
0.135404
0.122147
0.106344
0.0888671
0.0700386
0.0548919
0.0451759
0.200642
0.224806
0.244323
0.256934
0.26356
0.265218
0.262781
0.256993
0.249048
0.240097
0.230045
0.219708
0.209436
0.200061
0.192064
0.186017
0.18153
0.178578
0.176215
0.173665
0.170082
0.164792
0.157091
0.14653
0.13322
0.117485
0.100043
0.0810323
0.0645321
0.0527049
0.183895
0.205463
0.226426
0.242073
0.252207
0.256991
0.257317
0.254292
0.248972
0.241656
0.233116
0.2243
0.215302
0.207096
0.200186
0.195242
0.191729
0.189423
0.187236
0.184436
0.180344
0.174485
0.166349
0.155628
0.142448
0.127024
0.109934
0.0912483
0.0742499
0.0608446
0.162449
0.182625
0.205234
0.223803
0.237286
0.244851
0.24803
0.247923
0.245044
0.23987
0.233315
0.225844
0.218255
0.211358
0.20569
0.201946
0.199467
0.197834
0.195876
0.19292
0.188446
0.182154
0.173718
0.162968
0.150059
0.135109
0.118593
0.100632
0.0836149
0.0690379
0.142061
0.160243
0.183227
0.203794
0.22014
0.230261
0.236353
0.238966
0.2386
0.235631
0.230913
0.22502
0.218842
0.21328
0.208929
0.206413
0.204966
0.204006
0.202319
0.199303
0.19458
0.188009
0.179425
0.168792
0.156267
0.14193
0.12608
0.109049
0.0923595
0.0769057
0.126198
0.140548
0.162283
0.184332
0.202421
0.214572
0.223254
0.228325
0.230263
0.22942
0.226476
0.22221
0.217453
0.213313
0.210218
0.208891
0.208426
0.208112
0.206731
0.203753
0.198926
0.192245
0.183687
0.17333
0.161315
0.147557
0.132394
0.116318
0.100109
0.0842428
0.114951
0.123928
0.142977
0.165248
0.184766
0.199205
0.209751
0.216782
0.220669
0.221677
0.220468
0.217791
0.214482
0.211662
0.209813
0.209605
0.210033
0.210314
0.209265
0.206421
0.201637
0.195057
0.186731
0.176746
0.165189
0.152048
0.137717
0.122546
0.106859
0.0909604
0.108349
0.111062
0.125931
0.146903
0.167293
0.183893
0.196416
0.205137
0.210403
0.212956
0.213329
0.212148
0.210218
0.208665
0.207966
0.208746
0.209962
0.210785
0.210063
0.207447
0.202897
0.196539
0.188516
0.178985
0.167979
0.155534
0.142281
0.127832
0.112649
0.0968562
0.10883
0.103281
0.112157
0.129819
0.150129
0.168649
0.183084
0.193386
0.200111
0.203811
0.205483
0.205636
0.204964
0.204569
0.20489
0.206512
0.208399
0.209708
0.209291
0.206946
0.202558
0.196438
0.188885
0.180057
0.169758
0.158151
0.145903
0.1322
0.117512
0.101901
0.115746
0.103343
0.104343
0.116479
0.134305
0.153668
0.169786
0.181545
0.189635
0.194692
0.197397
0.198597
0.199015
0.199616
0.200789
0.203103
0.205537
0.207271
0.207177
0.20516
0.201198
0.195446
0.188329
0.180046
0.170639
0.160186
0.148717
0.135716
0.121499
0.106091
0.129592
0.111576
0.103786
0.108688
0.122007
0.139787
0.15671
0.169754
0.179131
0.185444
0.189326
0.191393
0.192652
0.194047
0.195893
0.198735
0.201586
0.203673
0.203919
0.202285
0.198798
0.19367
0.187107
0.179467
0.170953
0.161567
0.150819
0.138458
0.124669
0.109457
0.15067
0.128918
0.113314
0.108214
0.114968
0.128399
0.144443
0.158266
0.168757
0.176215
0.181195
0.184249
0.186179
0.188124
0.190454
0.193653
0.196788
0.199153
0.199746
0.198528
0.195582
0.191124
0.185363
0.178512
0.170941
0.162356
0.152293
0.140507
0.127095
0.112044
0.178631
0.154817
0.133557
0.118772
0.11487
0.121792
0.134311
0.147672
0.158792
0.167185
0.173144
0.177118
0.179831
0.182134
0.184761
0.188149
0.191437
0.194005
0.194936
0.194156
0.191808
0.188098
0.18329
0.177466
0.170706
0.162751
0.153263
0.141962
0.12886
0.113923
0.212528
0.187691
0.163106
0.14067
0.125872
0.122238
0.128399
0.139069
0.149779
0.158646
0.165367
0.17015
0.173599
0.176415
0.179196
0.182602
0.185929
0.18863
0.189889
0.189572
0.18789
0.185073
0.181261
0.176401
0.170333
0.162906
0.153877
0.142949
0.130065
0.115188
0.251384
0.226001
0.199516
0.172125
0.147966
0.132916
0.128945
0.134142
0.142669
0.151112
0.158174
0.163567
0.167672
0.171003
0.174144
0.177565
0.180867
0.183647
0.185256
0.185478
0.184478
0.182444
0.179512
0.175469
0.170014
0.163015
0.15432
0.143635
0.130844
0.115944
0.294026
0.268317
0.240564
0.210096
0.179296
0.153805
0.138878
0.134833
0.138754
0.145414
0.152084
0.157742
0.162361
0.166217
0.169812
0.173483
0.176917
0.179801
0.181687
0.182357
0.181914
0.180545
0.178385
0.174954
0.169961
0.163348
0.154856
0.144249
0.131384
0.116337
0.33922
0.313284
0.284512
0.251938
0.216782
0.183312
0.157774
0.143333
0.139724
0.142689
0.147959
0.153352
0.158284
0.162674
0.166844
0.170936
0.174639
0.177667
0.179756
0.180773
0.180801
0.179992
0.178332
0.175486
0.170981
0.164523
0.155963
0.145164
0.13196
0.116538
0.385944
0.359843
0.330217
0.296055
0.258016
0.219102
0.184934
0.160297
0.147801
0.144829
0.147235
0.151741
0.156746
0.161701
0.166652
0.171417
0.17555
0.178785
0.181014
0.182236
0.18256
0.182109
0.180843
0.178333
0.174146
0.167727
0.158708
0.147113
0.13305
0.116824
0.433757
0.407693
0.377542
0.342342
0.302547
0.260296
0.220047
0.186847
0.165356
0.155337
0.153376
0.156009
0.160901
0.166617
0.172803
0.178669
0.183412
0.187018
0.189301
0.190416
0.190566
0.189886
0.188312
0.185551
0.181137
0.174422
0.164668
0.151746
0.135705
0.117779
0.4841
0.458695
0.428837
0.39368
0.353606
0.310209
0.266741
0.227701
0.198752
0.181764
0.174936
0.175065
0.179953
0.187153
0.195722
0.203607
0.209419
0.213298
0.215187
0.215286
0.213878
0.211338
0.207846
0.203283
0.197192
0.188852
0.177347
0.161899
0.142604
0.121023
0.543416
0.520185
0.492566
0.459864
0.422443
0.381421
0.339016
0.298858
0.266614
0.245486
0.235464
0.234628
0.241431
0.252786
0.266566
0.278547
0.286119
0.289707
0.289461
0.28561
0.278997
0.270519
0.260859
0.250249
0.238387
0.224549
0.207592
0.186391
0.159745
0.131061
0.631682
0.613865
0.592492
0.566928
0.53767
0.505565
0.471846
0.439368
0.412481
0.394879
0.388017
0.392191
0.406254
0.426652
0.449449
0.467617
0.477356
0.479685
0.474383
0.462258
0.444738
0.423615
0.400302
0.375576
0.34946
0.321375
0.29001
0.253552
0.210044
0.163381
0.797857
0.789038
0.778164
0.764689
0.749978
0.734676
0.718942
0.702928
0.689714
0.683135
0.686015
0.700202
0.723591
0.752427
0.781029
0.802153
0.812535
0.813343
0.803355
0.784007
0.756683
0.723554
0.68625
0.645448
0.600955
0.552281
0.497979
0.434876
0.360054
0.279364
1.04269
1.04071
1.04577
1.05203
1.05915
1.06452
1.06435
1.06099
1.05621
1.05572
1.06318
1.07824
1.09765
1.11894
1.13581
1.14554
1.14842
1.14446
1.13291
1.11506
1.09194
1.06484
1.03431
0.999582
0.959086
0.911483
0.854507
0.783847
0.696004
0.59857
1.15002
1.15368
1.175
1.19752
1.21165
1.21565
1.21159
1.20454
1.19842
1.19888
1.20404
1.21027
1.21375
1.21536
1.20891
1.19792
1.18831
1.17755
1.1663
1.15525
1.14562
1.13777
1.13139
1.12518
1.11698
1.10619
1.09102
1.07028
1.04404
1.00597
0.14718
0.168667
0.174328
0.176127
0.174515
0.170229
0.164034
0.156587
0.148328
0.139636
0.130712
0.121847
0.113105
0.104855
0.0972401
0.0906754
0.0854176
0.0825309
0.0825545
0.0840553
0.0842609
0.0812679
0.0743872
0.0638583
0.0505896
0.0358447
0.0238007
0.022635
0.0216881
0.0232569
0.23411
0.266474
0.274584
0.27196
0.263328
0.251444
0.23791
0.223712
0.209323
0.195106
0.181164
0.167728
0.154724
0.142579
0.131442
0.121785
0.113909
0.110071
0.111181
0.115423
0.118908
0.11862
0.112532
0.100429
0.0834595
0.0634866
0.0434979
0.0332145
0.033767
0.0311369
0.281673
0.318368
0.331252
0.331151
0.323513
0.311451
0.296877
0.280996
0.264438
0.247711
0.231056
0.214832
0.199068
0.184353
0.171025
0.159619
0.150426
0.145926
0.146788
0.150973
0.154455
0.154055
0.147271
0.133602
0.114005
0.0901736
0.0650505
0.0448913
0.0403104
0.0394183
0.309496
0.344804
0.359977
0.362911
0.357658
0.347374
0.333837
0.318338
0.30161
0.284277
0.266708
0.24938
0.232458
0.216671
0.202565
0.190697
0.181286
0.176625
0.176999
0.180306
0.182841
0.181631
0.17417
0.159731
0.138963
0.113291
0.0853131
0.0588959
0.0454297
0.0409329
0.321685
0.352679
0.369989
0.376364
0.374284
0.366837
0.355444
0.341489
0.325721
0.308937
0.291589
0.274259
0.257249
0.241429
0.2275
0.216032
0.207085
0.202579
0.202374
0.204454
0.205649
0.203314
0.195177
0.180399
0.159374
0.133195
0.104036
0.0743507
0.0542035
0.0446305
0.32143
0.347083
0.365659
0.375565
0.377796
0.373932
0.365377
0.353811
0.33973
0.324339
0.308021
0.2915
0.275197
0.260125
0.24706
0.236611
0.228585
0.224434
0.22361
0.224348
0.224041
0.220434
0.211625
0.196749
0.176002
0.15016
0.12097
0.0901449
0.0658266
0.051902
0.314779
0.334937
0.352921
0.365254
0.371258
0.371498
0.366669
0.357514
0.345509
0.332252
0.317569
0.302497
0.287514
0.273806
0.262118
0.253164
0.246384
0.242713
0.241296
0.240693
0.23883
0.233925
0.224454
0.209621
0.189468
0.16449
0.136025
0.105347
0.0788258
0.0615176
0.302469
0.31583
0.332706
0.347162
0.35686
0.361065
0.360092
0.354444
0.345768
0.334379
0.321364
0.30829
0.295094
0.283196
0.273332
0.266217
0.260902
0.257788
0.255846
0.253963
0.250605
0.244454
0.234357
0.219653
0.200286
0.176497
0.149313
0.119582
0.0921561
0.0722451
0.28164
0.290505
0.306689
0.323228
0.336465
0.34456
0.347436
0.345519
0.33992
0.331392
0.321204
0.309863
0.298666
0.288926
0.281214
0.276169
0.272441
0.269925
0.267548
0.264515
0.259791
0.252514
0.241881
0.227382
0.208933
0.186463
0.160605
0.132332
0.105042
0.0832194
0.254818
0.26073
0.276816
0.295498
0.311933
0.323673
0.330242
0.33198
0.329711
0.324228
0.316692
0.307841
0.29907
0.291541
0.286183
0.283333
0.281227
0.279333
0.276623
0.272608
0.266713
0.258492
0.247475
0.233304
0.21566
0.194409
0.170115
0.143492
0.116854
0.0938477
0.229556
0.231877
0.246813
0.26643
0.2853
0.300084
0.310046
0.3151
0.316115
0.313741
0.309026
0.302867
0.296541
0.291579
0.288592
0.287963
0.287436
0.286171
0.283243
0.278447
0.271628
0.262703
0.251534
0.237621
0.220679
0.200669
0.178143
0.153113
0.127418
0.103893
0.207841
0.205247
0.217937
0.237624
0.258194
0.275589
0.288358
0.296214
0.300145
0.300755
0.298875
0.295436
0.2917
0.289281
0.28872
0.29027
0.291207
0.29058
0.287558
0.282201
0.274754
0.265491
0.254152
0.240513
0.224309
0.205552
0.18483
0.161191
0.136499
0.113008
0.190876
0.182201
0.191479
0.210081
0.231492
0.250896
0.266082
0.276565
0.28295
0.286115
0.286891
0.286097
0.284942
0.285058
0.286802
0.290398
0.292708
0.292685
0.289714
0.284077
0.276233
0.266583
0.255318
0.242169
0.226817
0.209553
0.190138
0.167803
0.1441
0.120883
0.179494
0.164795
0.169171
0.185037
0.206047
0.226708
0.243886
0.256626
0.265339
0.270777
0.273775
0.275379
0.276685
0.279141
0.283063
0.288516
0.292091
0.292617
0.289684
0.283856
0.275834
0.266186
0.255179
0.242773
0.228471
0.212692
0.1943
0.173089
0.150296
0.12748
0.177624
0.156339
0.153556
0.164424
0.183132
0.203834
0.222362
0.236963
0.247696
0.255181
0.260249
0.263836
0.2673
0.271846
0.277746
0.284824
0.289537
0.290662
0.287998
0.282341
0.27441
0.264958
0.254423
0.242723
0.229765
0.214926
0.197438
0.177181
0.15519
0.13282
0.184299
0.159515
0.14783
0.15095
0.164773
0.183533
0.202267
0.218128
0.230509
0.239764
0.24666
0.25202
0.257228
0.263524
0.27112
0.27957
0.285287
0.287065
0.284783
0.279503
0.272057
0.263112
0.253311
0.242604
0.230645
0.216487
0.199706
0.180222
0.158904
0.136972
0.200158
0.172786
0.154166
0.147723
0.153834
0.167777
0.184797
0.200855
0.214298
0.224955
0.233396
0.240316
0.246969
0.254578
0.263532
0.273088
0.279674
0.282165
0.280415
0.2757
0.269005
0.260985
0.25227
0.242475
0.231111
0.2175
0.201246
0.18235
0.161568
0.14003
0.227098
0.197915
0.173798
0.157817
0.15288
0.159324
0.171791
0.186257
0.199761
0.211248
0.220872
0.229088
0.236999
0.245526
0.255475
0.265869
0.273203
0.27647
0.275416
0.271523
0.265913
0.259208
0.251445
0.242257
0.231332
0.218108
0.20221
0.183713
0.16332
0.142109
0.264321
0.233695
0.205624
0.181698
0.16576
0.160614
0.165703
0.175956
0.1879
0.19931
0.209599
0.218789
0.227746
0.237171
0.247714
0.25868
0.266676
0.27079
0.270676
0.268011
0.263594
0.257925
0.250869
0.242128
0.231511
0.218509
0.202783
0.184492
0.164323
0.143348
0.309746
0.277866
0.246851
0.217059
0.191552
0.174654
0.168632
0.171875
0.180126
0.1901
0.200307
0.210043
0.219901
0.230248
0.241481
0.252777
0.261474
0.266493
0.267533
0.265922
0.262459
0.25746
0.250879
0.242545
0.23207
0.219041
0.20323
0.18492
0.164785
0.143916
0.361194
0.328026
0.294533
0.260408
0.227664
0.200344
0.182754
0.176052
0.178043
0.185021
0.194142
0.203932
0.214544
0.225898
0.238026
0.249955
0.259393
0.26517
0.267171
0.266522
0.263849
0.259501
0.253351
0.245019
0.234017
0.220395
0.204054
0.185376
0.164996
0.144035
0.416718
0.382209
0.346476
0.308983
0.271023
0.235727
0.207775
0.190544
0.184186
0.185886
0.192895
0.202303
0.213539
0.225926
0.239656
0.252733
0.263066
0.269481
0.272293
0.272349
0.270054
0.265766
0.259466
0.250806
0.239106
0.224088
0.206294
0.18654
0.165394
0.143987
0.47515
0.43944
0.401842
0.361814
0.320276
0.279541
0.243723
0.217059
0.201909
0.197223
0.200505
0.208931
0.220972
0.235204
0.251337
0.266387
0.277824
0.285022
0.288338
0.288489
0.285667
0.28034
0.272703
0.26256
0.249386
0.232591
0.212453
0.190041
0.166968
0.144285
0.537079
0.500791
0.462221
0.420896
0.377563
0.333983
0.293445
0.260027
0.237378
0.226478
0.225528
0.232861
0.246329
0.263746
0.284392
0.302839
0.315991
0.323938
0.327098
0.3259
0.320638
0.312068
0.300776
0.286894
0.270131
0.250025
0.226285
0.200036
0.172523
0.14648
0.606912
0.571645
0.534026
0.493645
0.45115
0.407998
0.366759
0.330924
0.304539
0.289908
0.286591
0.294539
0.311749
0.335216
0.363593
0.387444
0.403036
0.411253
0.412612
0.407217
0.395934
0.38001
0.36074
0.338859
0.314417
0.287135
0.256601
0.22302
0.187987
0.155167
0.697398
0.666319
0.633077
0.597368
0.559801
0.521772
0.485415
0.453647
0.43019
0.417754
0.41723
0.430497
0.455528
0.488723
0.527246
0.557409
0.575047
0.582289
0.579314
0.566424
0.545021
0.51694
0.484336
0.448682
0.410499
0.369766
0.325878
0.278483
0.228103
0.180886
0.836854
0.81433
0.789731
0.763259
0.735546
0.708268
0.683092
0.662306
0.648667
0.644577
0.652762
0.675005
0.709543
0.751998
0.797434
0.829734
0.84628
0.85046
0.841867
0.821485
0.790761
0.751665
0.706165
0.655983
0.601705
0.543281
0.480118
0.410386
0.333973
0.258724
1.05774
1.04739
1.03584
1.02219
1.0075
0.99354
0.981192
0.971931
0.967778
0.971688
0.986647
1.01374
1.05098
1.09233
1.13036
1.15058
1.15754
1.15421
1.14097
1.11899
1.08953
1.05359
1.0116
0.963235
0.907278
0.842226
0.767739
0.680096
0.577581
0.470381
1.30414
1.30089
1.30767
1.31569
1.31831
1.31505
1.30795
1.30032
1.29577
1.29813
1.30933
1.32809
1.35086
1.3693
1.37497
1.36138
1.34652
1.32896
1.3117
1.29408
1.27797
1.26338
1.24942
1.23279
1.20979
1.17667
1.12641
1.05918
0.97126
0.871001
1.34615
1.35633
1.37845
1.40025
1.41343
1.41617
1.40887
1.39798
1.38942
1.38748
1.39031
1.39401
1.39442
1.38671
1.36538
1.32908
1.30001
1.27357
1.25373
1.23976
1.23343
1.23388
1.2405
1.24946
1.25704
1.26018
1.2569
1.24671
1.22682
1.19885
0.181724
0.206498
0.211501
0.211575
0.208912
0.203597
0.196206
0.1874
0.17764
0.167348
0.156702
0.14604
0.135375
0.125207
0.115717
0.107603
0.101622
0.100944
0.106775
0.11446
0.117785
0.114443
0.104642
0.0895132
0.0702695
0.04854
0.0268314
0.0224923
0.021618
0.0234324
0.292715
0.329958
0.336746
0.333602
0.323829
0.3102
0.294582
0.278044
0.261092
0.244066
0.226979
0.210077
0.193186
0.177009
0.161838
0.148696
0.139142
0.13947
0.150703
0.166008
0.176175
0.176969
0.167148
0.147872
0.120996
0.0889844
0.0566373
0.0358433
0.0303337
0.0303381
0.356141
0.397067
0.409954
0.409963
0.401401
0.387636
0.370785
0.352109
0.332312
0.311907
0.291105
0.270263
0.249404
0.229466
0.211102
0.19541
0.184278
0.18458
0.196507
0.212746
0.22376
0.225034
0.214599
0.19326
0.162732
0.125032
0.085213
0.0512447
0.0388769
0.0391219
0.397093
0.434357
0.450898
0.454159
0.448226
0.436328
0.420388
0.401714
0.381211
0.359528
0.337083
0.314323
0.291531
0.269806
0.250181
0.233707
0.222322
0.222533
0.233592
0.248461
0.258364
0.259074
0.248268
0.226475
0.194861
0.155005
0.111385
0.0689215
0.0467769
0.0417425
0.421455
0.453272
0.470838
0.477097
0.474641
0.465724
0.451849
0.434374
0.414435
0.392788
0.370037
0.346709
0.323337
0.301186
0.281555
0.265444
0.254613
0.254754
0.264225
0.276631
0.284454
0.283947
0.272767
0.251162
0.219856
0.179971
0.135119
0.0883584
0.0578771
0.0464004
0.431546
0.454147
0.472394
0.483299
0.485371
0.480212
0.469223
0.453806
0.435434
0.414843
0.392811
0.369969
0.347075
0.32557
0.306865
0.29198
0.282266
0.282344
0.289882
0.299319
0.304572
0.302375
0.290709
0.269548
0.239303
0.200697
0.156467
0.108341
0.0719469
0.0544056
0.429534
0.446345
0.464023
0.477161
0.48335
0.482515
0.474925
0.462158
0.446292
0.427592
0.407157
0.385683
0.364144
0.344173
0.327186
0.314213
0.306046
0.306046
0.311483
0.317766
0.32022
0.316076
0.303798
0.283163
0.254362
0.217867
0.17493
0.127372
0.0878353
0.0650965
0.42063
0.430436
0.446045
0.460911
0.47086
0.474334
0.471166
0.462646
0.449159
0.432382
0.414302
0.394963
0.375558
0.357821
0.343291
0.332772
0.326422
0.326282
0.329584
0.332745
0.332342
0.326182
0.313224
0.293136
0.266013
0.231419
0.190562
0.14497
0.10414
0.0773211
0.402489
0.405991
0.419936
0.436358
0.449811
0.457445
0.458857
0.454251
0.444551
0.431538
0.416003
0.398748
0.38212
0.367244
0.355772
0.348111
0.343673
0.343313
0.344534
0.344784
0.341545
0.333486
0.319871
0.300275
0.274286
0.241899
0.203742
0.160808
0.119972
0.0901078
0.377544
0.37487
0.387478
0.405441
0.422081
0.433764
0.439548
0.439268
0.433648
0.424215
0.412163
0.398642
0.384623
0.373068
0.3651
0.36055
0.357972
0.357319
0.356627
0.354131
0.348325
0.338582
0.324478
0.304986
0.280158
0.249989
0.214901
0.17451
0.134711
0.102801
0.348067
0.340667
0.35175
0.370469
0.389759
0.405118
0.415109
0.418948
0.41763
0.412136
0.403982
0.394019
0.383632
0.375818
0.371654
0.37032
0.369425
0.368433
0.365959
0.361035
0.353057
0.342056
0.327253
0.307988
0.28434
0.256587
0.22389
0.185921
0.147642
0.114976
0.319941
0.306693
0.315438
0.334052
0.355169
0.373611
0.38731
0.394941
0.3977
0.396288
0.392189
0.386176
0.379761
0.375978
0.375735
0.377577
0.378092
0.376725
0.372671
0.365722
0.356135
0.343998
0.328731
0.309852
0.287511
0.261774
0.23082
0.195081
0.158497
0.125865
0.294665
0.274997
0.280509
0.297982
0.319987
0.340777
0.357527
0.368863
0.375327
0.377685
0.377619
0.375659
0.373446
0.373898
0.377594
0.382416
0.38405
0.382297
0.376936
0.368521
0.357715
0.344661
0.329316
0.311039
0.2902
0.265496
0.235949
0.202153
0.167278
0.135193
0.273013
0.247922
0.24918
0.264157
0.285799
0.307992
0.327143
0.341703
0.35157
0.357551
0.361102
0.363056
0.365169
0.369839
0.377431
0.384908
0.387446
0.385307
0.379096
0.369525
0.357724
0.344503
0.329425
0.312253
0.292342
0.268073
0.239535
0.207356
0.174087
0.142855
0.258696
0.228979
0.224122
0.234951
0.254486
0.276727
0.297418
0.314447
0.32738
0.336651
0.343589
0.349062
0.35533
0.364177
0.375475
0.385212
0.388467
0.386088
0.379071
0.369041
0.357182
0.344194
0.329807
0.313556
0.293729
0.269706
0.241838
0.210932
0.179096
0.148862
0.255151
0.222432
0.208957
0.213444
0.228482
0.24881
0.269714
0.28827
0.303585
0.315752
0.325712
0.334408
0.344451
0.357348
0.372008
0.383606
0.387472
0.38508
0.378001
0.368009
0.356545
0.344243
0.33069
0.314568
0.294576
0.270562
0.24307
0.213114
0.182512
0.153311
0.262065
0.228466
0.208346
0.203062
0.210763
0.226556
0.245707
0.264485
0.281253
0.295644
0.308259
0.319912
0.333182
0.349806
0.367426
0.380542
0.385013
0.38293
0.376373
0.36705
0.356521
0.345136
0.331769
0.31531
0.294998
0.270745
0.243369
0.21413
0.184549
0.15634
0.280075
0.245769
0.22038
0.206265
0.204332
0.212677
0.227508
0.244589
0.261555
0.277289
0.292031
0.306264
0.322603
0.342186
0.36236
0.376768
0.381981
0.38073
0.375404
0.367468
0.357762
0.346175
0.332895
0.315979
0.295156
0.270583
0.243137
0.21421
0.18544
0.158134
0.31137
0.276019
0.246276
0.223978
0.211526