/*--------------------------------*- C++ -*----------------------------------*\
| =========                 |                                                 |
| \\      /  F ield         | OpenFOAM: The Open Source CFD Toolbox           |
|  \\    /   O peration     | Version:  5.0                                   |
|   \\  /    A nd           | Web:      www.OpenFOAM.org                      |
|    \\/     M anipulation  |                                                 |
\*---------------------------------------------------------------------------*/
FoamFile
{
    version     2.0;
    format      ascii;
    class       volScalarField;
    location    "1800/air";
    object      nut;
}
// * * * * * * * * * * * * * * * * * * * * * * * * * * * * * * * * * * * * * //

dimensions      [0 2 -1 0 0 0 0];

internalField   nonuniform List<scalar> 
243000
(
0.000145103
0.00014755
0.000144549
0.000140003
0.000134454
0.000128413
0.000122157
0.000115908
0.000109824
0.000104055
9.86805e-05
9.37505e-05
8.92378e-05
8.51752e-05
8.15603e-05
7.84691e-05
7.59642e-05
7.55234e-05
7.38021e-05
7.47485e-05
7.55901e-05
7.46365e-05
7.35073e-05
7.21715e-05
7.05738e-05
7.00062e-05
0.000310842
0.000294237
0.000270988
7.38371e-05
0.000632108
0.000668864
0.000676547
0.000674917
0.000667414
0.000655865
0.000641476
0.000625183
0.000607566
0.000589165
0.00057027
0.000551166
0.000531885
0.000512915
0.000494594
0.00047748
0.000461963
0.00044567
0.000440452
0.000430623
0.000425414
0.000422773
0.000413776
0.000400687
0.000382809
0.000357166
0.000333799
0.00030411
0.000279123
0.000305498
0.000681712
0.0007188
0.000729001
0.000728252
0.000720858
0.00070899
0.000694017
0.000676914
0.000658325
0.000638872
0.000618867
0.000598653
0.000578343
0.000558524
0.000539606
0.000522196
0.00050667
0.000493993
0.000485214
0.000478723
0.000473535
0.000467539
0.000458031
0.000443751
0.000424438
0.000399965
0.000371201
0.000336286
0.000305704
0.000309363
0.000703943
0.000742346
0.000755482
0.000757336
0.000751892
0.000741514
0.000727613
0.000711199
0.000692971
0.000673612
0.000653523
0.000633152
0.000612687
0.000592806
0.000574
0.000556942
0.000541997
0.000530257
0.000521659
0.000515424
0.000509927
0.000503266
0.000493361
0.000478803
0.000459082
0.000434014
0.0004038
0.000367195
0.000333994
0.000317151
0.000708031
0.000746385
0.000764733
0.000770493
0.000768085
0.000760194
0.000748262
0.000733376
0.000716289
0.000697756
0.000678262
0.000658355
0.000638315
0.00061891
0.000600682
0.000584384
0.000570351
0.000559539
0.000551513
0.000545357
0.000539486
0.000532264
0.000521915
0.00050712
0.000487305
0.000462175
0.000431803
0.000394843
0.000360599
0.000335334
0.000700089
0.000738874
0.000761778
0.000772226
0.000773661
0.00076884
0.000759444
0.000746605
0.000731165
0.000713958
0.000695518
0.000676502
0.000657282
0.00063873
0.000621371
0.000606099
0.000593168
0.00058336
0.00057595
0.00056988
0.000563665
0.000555903
0.00054511
0.000530126
0.000510387
0.000485525
0.000455526
0.000418934
0.000384262
0.000355129
0.000682252
0.000723377
0.000750759
0.000765718
0.000771315
0.000770094
0.000763454
0.000752894
0.000739487
0.00072397
0.000706923
0.000689107
0.000670984
0.000653534
0.000637253
0.000623174
0.000611445
0.000602657
0.000595858
0.000589896
0.000583394
0.000575156
0.000563967
0.000548842
0.000529269
0.00050483
0.000475436
0.000439736
0.000404941
0.000373536
0.000656142
0.000701232
0.000733158
0.00075281
0.000762781
0.00076533
0.000761985
0.000754109
0.000742688
0.000729015
0.000713628
0.00069725
0.000680432
0.000664229
0.000649183
0.000636386
0.000625909
0.00061812
0.00061191
0.000606087
0.00059937
0.00059075
0.000579238
0.000564027
0.000544665
0.000520726
0.000492055
0.000457442
0.000422928
0.000389564
0.000623862
0.000673841
0.000710508
0.000734903
0.000749367
0.00075578
0.000755864
0.000750904
0.000742113
0.000730401
0.000716544
0.000701748
0.000686372
0.000671528
0.000657806
0.000646336
0.000637113
0.000630278
0.000624636
0.000618982
0.000612137
0.00060324
0.000591497
0.000576264
0.000557149
0.000533738
0.00050585
0.000472101
0.000438165
0.000403982
0.000591832
0.00064452
0.00068472
0.000713354
0.000732153
0.000742491
0.000746073
0.000744212
0.000738036
0.000728567
0.000716741
0.000703354
0.000689416
0.000675992
0.000663635
0.000653492
0.000645485
0.000639554
0.000634452
0.000629003
0.000622113
0.000613053
0.000601183
0.000586001
0.000567175
0.000544387
0.000517029
0.000484366
0.000451174
0.000416733
0.00056172
0.000614582
0.000658247
0.000690407
0.000712333
0.000726373
0.000733403
0.000734683
0.000731234
0.00072409
0.000714195
0.000702615
0.000690162
0.000678076
0.000667085
0.000658235
0.000651379
0.000646287
0.000641703
0.00063649
0.000629642
0.00062053
0.000608645
0.000593598
0.000575161
0.00055279
0.00052596
0.000494684
0.000462358
0.000428021
0.000536964
0.000584432
0.000630617
0.000666549
0.000692008
0.000708813
0.000718666
0.000722895
0.000722202
0.000717436
0.000709581
0.000699729
0.000688833
0.000678219
0.000668506
0.000660878
0.000655086
0.000650769
0.000646673
0.000641728
0.000635002
0.000625956
0.000614164
0.000599384
0.000581254
0.000559269
0.000532921
0.000503215
0.000471899
0.000437924
0.000522758
0.000556045
0.000601858
0.000641312
0.000670669
0.000690718
0.000703155
0.000709553
0.000711397
0.000709001
0.000703215
0.000695153
0.00068581
0.000676594
0.000668164
0.000661682
0.000656861
0.000653249
0.000649612
0.000644959
0.000638434
0.000629577
0.000618027
0.000603475
0.000585661
0.000564053
0.00053818
0.00051014
0.000479935
0.000446485
0.000524491
0.000534246
0.00057323
0.000614601
0.000647921
0.000671677
0.000687117
0.000695869
0.000699498
0.000699205
0.000695426
0.00068916
0.000681365
0.00067351
0.000666301
0.000660873
0.000656896
0.000653935
0.000650732
0.000646422
0.000640189
0.000631552
0.000620234
0.000605987
0.000588531
0.000567323
0.000542518
0.000515835
0.000486675
0.000453811
0.000544351
0.000526776
0.000548657
0.000587342
0.000623672
0.000651364
0.00067024
0.0006817
0.000687389
0.00068867
0.000686578
0.000682006
0.000675737
0.000669188
0.000663124
0.000658657
0.000655443
0.000653044
0.000650245
0.000646203
0.000640203
0.000631858
0.000620867
0.000606999
0.000589978
0.000569239
0.000545889
0.000520453
0.000492267
0.000459996
0.000578255
0.000541187
0.000535895
0.000562686
0.00059864
0.000629703
0.000652274
0.000666815
0.000674873
0.000677942
0.000677225
0.000674002
0.000669137
0.00066383
0.000658827
0.000655221
0.000652683
0.000650774
0.000648352
0.000644651
0.000638974
0.000630907
0.000620226
0.000606705
0.000590086
0.00057022
0.000548315
0.000524073
0.000496806
0.00046512
0.000619698
0.000576111
0.000544855
0.000547677
0.000575457
0.000607296
0.000633182
0.000651042
0.00066178
0.000666882
0.000667722
0.000665597
0.000661824
0.000657631
0.000653588
0.000650748
0.000648796
0.000647316
0.000645253
0.000641887
0.000636586
0.000628906
0.000618575
0.000605436
0.000589254
0.000570627
0.00054996
0.000526801
0.000500382
0.000469251
0.000664416
0.000622092
0.000577552
0.000551951
0.000560119
0.000586294
0.00061349
0.000634394
0.000648003
0.000655379
0.000657948
0.000657104
0.000654188
0.000650815
0.000647589
0.000645415
0.00064396
0.000642855
0.000641133
0.000638109
0.000633187
0.000625957
0.000616052
0.00060335
0.000587942
0.000570478
0.000550919
0.000528732
0.000503079
0.000472467
0.000706143
0.000668433
0.000623154
0.000579641
0.000560253
0.000571232
0.000594857
0.000617311
0.000633579
0.000643366
0.000647825
0.000648419
0.000646514
0.000643691
0.000641048
0.000639405
0.00063836
0.000637577
0.000636179
0.000633503
0.000628975
0.000622207
0.000612833
0.000600678
0.000586352
0.000569917
0.000551301
0.000529963
0.000504984
0.00047485
0.000746346
0.00071271
0.000671233
0.000622836
0.000581879
0.000568568
0.000580711
0.000601048
0.000618869
0.000630895
0.000637329
0.000639465
0.000638715
0.000636601
0.000634303
0.00063295
0.000632202
0.000631683
0.000630585
0.00062826
0.00062414
0.000617851
0.000609052
0.000597896
0.000584546
0.00056903
0.000551214
0.000530604
0.00050619
0.000476468
0.000784958
0.000754479
0.000717073
0.000670666
0.000620047
0.000583693
0.000575901
0.000588058
0.000604789
0.000618252
0.000626517
0.000630235
0.000630737
0.000629471
0.000627659
0.000626414
0.000625741
0.000625401
0.000624559
0.000622577
0.000618881
0.000613187
0.000605281
0.000595051
0.000582599
0.000567918
0.000550817
0.000530785
0.000506808
0.000477465
0.000821782
0.00079367
0.000759484
0.000716697
0.000665082
0.000614641
0.000584832
0.000581744
0.000593028
0.000606098
0.000615617
0.000620801
0.000622571
0.000622268
0.000621073
0.000620084
0.000619515
0.000619211
0.000618546
0.0006169
0.000613725
0.000608693
0.000601592
0.000592236
0.000580635
0.000566723
0.000550257
0.000530688
0.000506992
0.000477955
0.0008572
0.0008306
0.000798617
0.000758973
0.000709763
0.000654278
0.000607507
0.000585438
0.000585908
0.000595592
0.000605128
0.000611376
0.000614325
0.000615024
0.000614565
0.000613972
0.0006136
0.000613396
0.000612902
0.000611565
0.000608868
0.000604463
0.000598116
0.000589602
0.000578827
0.000565653
0.000549759
0.000530544
0.000506965
0.000478112
0.000890132
0.000864638
0.000834296
0.000797159
0.000750986
0.000695676
0.000639656
0.000600174
0.000585859
0.000588408
0.000595967
0.000602446
0.0006063
0.000607962
0.000608316
0.000608254
0.000608182
0.00060815
0.000607843
0.000606795
0.000604538
0.000600723
0.000595078
0.00058738
0.00057741
0.000564959
0.000549589
0.000530652
0.000507021
0.00047819
0.000920158
0.00089567
0.000866724
0.00083162
0.000788308
0.000735371
0.000676368
0.000624616
0.000594738
0.000586692
0.000589752
0.000595147
0.000599371
0.000601861
0.000603083
0.000603694
0.000604057
0.000604281
0.000604173
0.000603381
0.000601498
0.000598174
0.00059314
0.00058611
0.000576843
0.000565057
0.000550255
0.000531571
0.000507735
0.000478669
0.000948359
0.000924823
0.000897165
0.00086393
0.000823317
0.000773555
0.000715444
0.000657405
0.000614462
0.000594048
0.000589877
0.000592533
0.000596427
0.000599609
0.000601857
0.000603379
0.000604353
0.000604909
0.000604964
0.000604265
0.000602508
0.000599407
0.000594717
0.000588155
0.000579416
0.000568144
0.00055369
0.000534987
0.00051043
0.000480691
0.00097756
0.000955337
0.000929267
0.000898143
0.0008605
0.000814723
0.000760295
0.000701761
0.00065103
0.000619333
0.000606557
0.000604972
0.000607961
0.000612013
0.000615799
0.000618681
0.000620466
0.000621271
0.000621107
0.000619864
0.000617434
0.000613696
0.000608502
0.000601615
0.000592687
0.000581248
0.000566508
0.000546987
0.000520775
0.000488734
0.001015
0.000994927
0.000971452
0.000943855
0.000911252
0.000872434
0.000826456
0.000775146
0.000726095
0.000690257
0.000672011
0.000667358
0.000670178
0.000676013
0.000682062
0.000686511
0.000688681
0.000688812
0.000686978
0.000683387
0.000678222
0.000671711
0.000663919
0.000654685
0.000643496
0.000629817
0.000612825
0.000590608
0.000560309
0.000522449
0.00108839
0.00107313
0.0010566
0.00103865
0.00101878
0.000996003
0.000969071
0.000938275
0.000906523
0.000881699
0.000868534
0.000865991
0.000870108
0.000877637
0.000884669
0.000888989
0.00088971
0.000887524
0.000882716
0.000875598
0.000866682
0.000856449
0.000845228
0.000832817
0.000817769
0.000800003
0.00077992
0.000754775
0.000721723
0.000680979
0.00132936
0.00132635
0.001327
0.00132737
0.00132658
0.00132393
0.00131859
0.00131089
0.00129895
0.00128839
0.0012815
0.00127827
0.00127777
0.00128078
0.00128364
0.00128534
0.0012846
0.00128365
0.00128224
0.00128088
0.00127942
0.00127826
0.00127725
0.00127598
0.0012696
0.00126009
0.0012516
0.00123843
0.00122057
0.00119759
0.000175911
0.000182026
0.000179609
0.00017451
0.00016789
0.000160467
0.000152721
0.000144992
0.00013748
0.000130343
0.00012364
0.000117454
0.00011179
0.000106763
0.000102396
9.88386e-05
9.61726e-05
9.45993e-05
9.43904e-05
9.4999e-05
9.57469e-05
9.57637e-05
9.41748e-05
9.0507e-05
8.4548e-05
7.61835e-05
0.000318692
0.000299493
0.000305473
7.86006e-05
0.000681159
0.000768001
0.000743092
0.000691371
0.00063387
0.000579573
0.000531178
0.000488714
0.000451517
0.000419237
0.000390939
0.00036636
0.000344307
0.000325207
0.000308326
0.000293938
0.000280841
0.000271075
0.000264823
0.000263101
0.000265213
0.000268976
0.000269601
0.000262877
0.000248473
0.000225823
0.000239423
0.000283205
0.000327282
0.000315668
0.00108127
0.00124902
0.00125801
0.00120513
0.00113018
0.00105082
0.000975557
0.000906712
0.000844676
0.000789746
0.000740825
0.000697829
0.000658903
0.000625008
0.000595251
0.000569409
0.000544769
0.000524349
0.000507151
0.000495405
0.000490126
0.000489134
0.000485051
0.000471667
0.000444739
0.00040396
0.000364371
0.000342302
0.000375594
0.00040828
0.00134068
0.00156561
0.00160936
0.0015773
0.00150973
0.00142793
0.00134414
0.00126372
0.00118868
0.00112043
0.00105842
0.00100319
0.000953089
0.000909241
0.000871297
0.000838433
0.000806578
0.000778398
0.000751356
0.00072871
0.00071284
0.000703077
0.000691369
0.000668873
0.000630581
0.000575062
0.000508565
0.000440839
0.000421313
0.000433084
0.0014726
0.00171123
0.00180854
0.00182005
0.00177555
0.00170545
0.00162534
0.0015446
0.00146592
0.00139249
0.00132439
0.00126306
0.0012071
0.00115829
0.0011169
0.0010813
0.00104613
0.00101315
0.000978468
0.000946198
0.000920043
0.000900765
0.000880349
0.000849319
0.000802214
0.000736463
0.000654971
0.000560287
0.000495867
0.000471636
0.00154787
0.00178739
0.00191891
0.00196268
0.0019483
0.00189765
0.00182817
0.00175574
0.00167994
0.00160804
0.00153955
0.00147715
0.00142013
0.00137072
0.00132964
0.00129475
0.00125922
0.00122355
0.00118321
0.00114302
0.00110785
0.00107959
0.00105074
0.0010127
0.000959156
0.000886703
0.000796978
0.000688575
0.000594501
0.00053783
0.00157765
0.00181063
0.00195809
0.00203004
0.00204511
0.00202112
0.00197373
0.00190777
0.00183713
0.00177324
0.00170878
0.0016495
0.00159537
0.00154909
0.00151104
0.00147959
0.00144587
0.00140906
0.00136478
0.00131836
0.00127566
0.00123898
0.00120318
0.00115968
0.00110185
0.0010256
0.000931398
0.000816755
0.000704965
0.000621125
0.0015663
0.00177641
0.00193662
0.00203544
0.00208072
0.002083
0.00205743
0.00201013
0.00195713
0.00189759
0.00183707
0.00178502
0.00173651
0.00169617
0.00166356
0.00163758
0.00160723
0.00157054
0.00152377
0.00147277
0.00142394
0.00138109
0.00133933
0.00129136
0.00123087
0.00115303
0.00105743
0.000940684
0.00081879
0.000712377
0.00148786
0.0016865
0.00186213
0.0019884
0.002065
0.00209462
0.00209307
0.00206906
0.00203172
0.00198521
0.00193753
0.00188939
0.00184753
0.00181489
0.00178973
0.0017706
0.00174478
0.00170933
0.00166129
0.00160747
0.00155541
0.00150786
0.00146176
0.00141003
0.00134748
0.00126948
0.00117486
0.00105981
0.000931187
0.000805402
0.00136097
0.00154761
0.00174212
0.00189618
0.00200598
0.00206485
0.00209049
0.00209026
0.00207253
0.00204143
0.00200522
0.00196653
0.00193273
0.00190815
0.00189197
0.00188042
0.00186006
0.00182679
0.00177855
0.00172354
0.00166855
0.001618
0.00156896
0.00151609
0.0014528
0.0013763
0.00128332
0.0011716
0.00103931
0.000896072
0.00123662
0.00138493
0.00157817
0.00176344
0.00191136
0.00200037
0.00205546
0.00208026
0.0020833
0.00206948
0.00204648
0.00201947
0.00199473
0.00198024
0.00197262
0.00196896
0.0019545
0.00192415
0.00187697
0.00182213
0.00176586
0.00171266
0.00166255
0.00160989
0.00154924
0.00147284
0.00138109
0.00127182
0.00113712
0.000980896
0.00113472
0.00122686
0.00139749
0.00159486
0.0017728
0.00190456
0.00199247
0.00204364
0.00206806
0.00207249
0.00206442
0.00205032
0.0020366
0.00203159
0.00203339
0.00203797
0.00202947
0.00200272
0.00195775
0.00190435
0.00184823
0.00179497
0.00174497
0.00169276
0.00163269
0.00155798
0.0014691
0.001361
0.00122395
0.00105977
0.00106406
0.00109484
0.00122446
0.00141259
0.00160704
0.00177319
0.00189902
0.00198395
0.00203029
0.00205367
0.00206169
0.00206162
0.00205984
0.00206527
0.00207626
0.00208875
0.00208637
0.00206392
0.00202187
0.00197113
0.00191743
0.00186482
0.00181365
0.00176233
0.00170358
0.00163218
0.00154864
0.00143897
0.00129924
0.00112882
0.00105036
0.00100684
0.00108122
0.00123792
0.0014313
0.00161978
0.00177681
0.00189422
0.00197228
0.00201598
0.00204083
0.00205555
0.00206644
0.00208278
0.00210265
0.00212273
0.00212668
0.00210935
0.00207051
0.00202278
0.00196889
0.00191555
0.00186537
0.00181774
0.00176209
0.00169484
0.00161508
0.0015048
0.00136257
0.00118711
0.00108421
0.000987077
0.000992876
0.0010967
0.00126534
0.00145888
0.0016368
0.00178093
0.00188806
0.00196053
0.00200462
0.00203407
0.00205822
0.00208551
0.00211375
0.00214132
0.0021518
0.00214035
0.00210583
0.00206176
0.00201162
0.00195856
0.00190773
0.00185892
0.00180888
0.00174934
0.00166961
0.00155859
0.00141397
0.00123428
0.00117089
0.00102932
0.000967774
0.00100982
0.00113204
0.0013072
0.00149107
0.00165348
0.00178476
0.00188343
0.0019526
0.00199935
0.00203673
0.00207469
0.00211114
0.00214593
0.00216307
0.00215806
0.00212906
0.00208937
0.00204312
0.00199429
0.00194392
0.00189509
0.00184835
0.00179382
0.00171343
0.00160111
0.00145396
0.00127053
0.00131764
0.00114402
0.00102491
0.000987714
0.00105278
0.00118333
0.00135357
0.00152236
0.0016703
0.00179064
0.0018827
0.00195137
0.00200359
0.00205187
0.00209635
0.0021381
0.00216192
0.00216378
0.00214135
0.00210671
0.00206525
0.00202075
0.00197492
0.00192816
0.00188319
0.00182825
0.00174744
0.00163331
0.00148342
0.00129647
0.00152184
0.00132781
0.00116447
0.00105741
0.00103401
0.001109
0.00124108
0.00139969
0.00155369
0.00168892
0.00179987
0.00188826
0.00195907
0.00201857
0.002071
0.00211945
0.00214993
0.00215905
0.00214411
0.00211523
0.00207949
0.00204031
0.002001
0.00195922
0.00191362
0.00185534
0.00177245
0.00165624
0.00150342
0.00131309
0.00177516
0.00156959
0.00137633
0.00121246
0.00111025
0.00109533
0.00117271
0.00129967
0.00144527
0.001586
0.00170986
0.00181424
0.0019015
0.00197621
0.00203712
0.00209186
0.00212892
0.00214565
0.00213913
0.00211701
0.00208825
0.00205626
0.00202399
0.00198705
0.00193879
0.00187632
0.0017903
0.00167145
0.00151535
0.00132169
0.00206477
0.00185349
0.00164113
0.00143703
0.00126794
0.00116929
0.00116013
0.00123756
0.00135694
0.00149062
0.00161918
0.00173413
0.00183429
0.00192185
0.00199489
0.00205711
0.00210097
0.00212551
0.00212845
0.00211487
0.00209409
0.00206915
0.00204326
0.00200839
0.00195857
0.00189231
0.00180308
0.00168091
0.00152094
0.00132378
0.00237345
0.00216033
0.00193623
0.00170561
0.00148763
0.0013163
0.00122506
0.00122374
0.00130011
0.00141229
0.00153481
0.00165301
0.00176074
0.00185746
0.00194016
0.00201132
0.00206377
0.00209659
0.00210914
0.00210513
0.00209251
0.00207445
0.00205391
0.00202038
0.00197133
0.0019051
0.00181308
0.00168678
0.00152213
0.00132097
0.00267852
0.0024664
0.00223628
0.00198987
0.00174013
0.00151491
0.00135082
0.00127189
0.00128222
0.00135822
0.00146287
0.00157484
0.00168271
0.00178238
0.00186926
0.00194463
0.0020033
0.00204387
0.00206605
0.00207325
0.00207038
0.0020617
0.00204609
0.00201977
0.00197632
0.00191021
0.00181651
0.00168843
0.00151979
0.0013144
0.00295097
0.0027428
0.00251252
0.00225994
0.00199347
0.00173421
0.00151521
0.00136701
0.00130958
0.00133111
0.00140337
0.00149801
0.0015954
0.00168777
0.00176871
0.00184009
0.00189851
0.00194267
0.0019734
0.00199268
0.00200353
0.00200874
0.00200705
0.00199411
0.00196323
0.00190459
0.00181084
0.00168004
0.00151167
0.00130398
0.00315432
0.00295505
0.00273212
0.00248353
0.00221421
0.00193912
0.00168516
0.00148323
0.00136233
0.00132479
0.00134836
0.00140777
0.00147897
0.00154868
0.00161018
0.00166611
0.00171451
0.00175773
0.00179468
0.0018268
0.00185511
0.00187969
0.0018986
0.00190741
0.00189891
0.00186269
0.00178515
0.00166149
0.00149174
0.00128686
0.00324722
0.00306498
0.00285931
0.00262619
0.00236738
0.00209263
0.00182224
0.00158419
0.00141011
0.00131222
0.00127873
0.00128592
0.00131508
0.00134985
0.00138555
0.00142153
0.00145682
0.0014935
0.00153138
0.00157141
0.00161216
0.00165348
0.00169337
0.00172732
0.00174801
0.00174475
0.00170319
0.00160682
0.00145682
0.00125922
0.00319743
0.0030444
0.00286819
0.00266313
0.00242835
0.00216988
0.00190331
0.00165338
0.0014499
0.00130934
0.00122885
0.00119151
0.00118736
0.00120106
0.001226
0.00125451
0.00128159
0.0013086
0.00133791
0.00136809
0.00140025
0.0014354
0.00147314
0.00151087
0.00154304
0.00156058
0.0015499
0.00149428
0.00137403
0.00121148
0.00302004
0.00291114
0.00277957
0.00261857
0.00242604
0.00220743
0.0019769
0.001757
0.00157139
0.00143449
0.00134538
0.00129991
0.00129143
0.00130639
0.00133552
0.00136557
0.00138859
0.00140766
0.00142327
0.00143518
0.00144508
0.00145493
0.00146558
0.00147629
0.00148398
0.00148262
0.0014614
0.00140557
0.00129599
0.00113816
0.00285132
0.00279582
0.00271794
0.00261224
0.00247729
0.00232043
0.00215478
0.00199594
0.00185887
0.00175232
0.00168033
0.00164561
0.00164077
0.00165647
0.00168347
0.00171038
0.00172952
0.00174538
0.0017555
0.00176102
0.00176275
0.00176192
0.00175863
0.00175143
0.00173727
0.00171128
0.00166383
0.00157947
0.00144054
0.00124606
0.00277159
0.00275184
0.00272601
0.00267923
0.00260825
0.00251824
0.00241481
0.00231102
0.00221571
0.00213602
0.0020795
0.00204758
0.00203606
0.00204027
0.0020526
0.00206805
0.00208064
0.00209386
0.00210525
0.00211622
0.00212688
0.00213715
0.00214591
0.00215062
0.00214792
0.00213405
0.00210034
0.00203298
0.00192034
0.00176365
0.00276364
0.00276285
0.00276162
0.0027436
0.00270664
0.00265935
0.00260146
0.0025387
0.00247623
0.00242358
0.00237986
0.00234821
0.00232837
0.00231997
0.00231805
0.00232351
0.00233128
0.00234316
0.00235841
0.00237787
0.00240082
0.00242614
0.00245178
0.00247563
0.00249531
0.00251061
0.00251408
0.00249827
0.00246753
0.00241825
0.000202477
0.00020867
0.000204412
0.000198206
0.000190601
0.000182174
0.000173417
0.000164697
0.000156228
0.000148182
0.000140615
0.000133624
0.00012719
0.000121468
0.000116492
0.000112489
0.000109626
0.000108631
0.000109958
0.000112713
0.000115048
0.000115566
0.000113433
0.000108111
9.92133e-05
8.62871e-05
6.79886e-05
0.00030741
7.47012e-05
8.05268e-05
0.000876229
0.00100429
0.00100755
0.00095215
0.00088009
0.000809027
0.00074434
0.000687458
0.000637323
0.000593369
0.000553902
0.000518642
0.000485399
0.000455413
0.000427065
0.000401204
0.000376336
0.000360607
0.000355937
0.000362997
0.000377146
0.000391489
0.00039506
0.000380304
0.000347068
0.000300601
0.000246799
0.000292122
0.000276755
0.000319734
0.00140552
0.00165059
0.00170994
0.0016702
0.00158766
0.00149153
0.00139521
0.00130495
0.00122197
0.00114684
0.00107778
0.00101487
0.000954975
0.000900362
0.000849411
0.000801731
0.000753995
0.000718774
0.000696896
0.000692272
0.000701953
0.00071673
0.000714887
0.000687338
0.000630795
0.000546663
0.000447524
0.000386471
0.000379247
0.00045494
0.00179637
0.00208924
0.00218887
0.00218044
0.00211158
0.0020172
0.00191344
0.00181021
0.0017112
0.0016188
0.00153209
0.00145199
0.00137566
0.00130566
0.00124127
0.00118073
0.00111863
0.00106728
0.00102813
0.0010078
0.00100534
0.00101191
0.00100427
0.00096665
0.000892122
0.000782584
0.000649778
0.000522117
0.000462818
0.000499883
0.00205741
0.00235613
0.00249603
0.00252497
0.00247978
0.00240009
0.00230237
0.00219949
0.0020961
0.00199712
0.00190248
0.00181424
0.00172971
0.0016525
0.00158269
0.00151654
0.00144589
0.00138113
0.00132623
0.00128975
0.00127461
0.00127138
0.00125661
0.00121192
0.00112773
0.00100385
0.000850397
0.000684858
0.000572017
0.000555331
0.00221617
0.00249933
0.00266651
0.00273293
0.00272518
0.00266818
0.00258385
0.00249084
0.0023905
0.00229336
0.00219813
0.0021087
0.00202303
0.00194548
0.0018761
0.00180943
0.00173367
0.00165765
0.0015882
0.00153742
0.00150984
0.00149679
0.0014762
0.00142694
0.00133903
0.00120938
0.00104583
0.000859931
0.00070809
0.000644912
0.0023338
0.00259546
0.00276485
0.00285284
0.00287369
0.00284688
0.00278641
0.00270138
0.00260706
0.00251974
0.00242944
0.00234446
0.00226341
0.00219128
0.0021265
0.00206309
0.00198435
0.00189862
0.00181642
0.00175329
0.0017142
0.00169185
0.00166616
0.00161641
0.00152831
0.00139903
0.0012333
0.00103872
0.000861565
0.000760367
0.00241257
0.00262416
0.0027884
0.00289426
0.00294292
0.00294468
0.00291053
0.00284786
0.0027765
0.00269254
0.00260478
0.00252986
0.0024573
0.00239495
0.00233877
0.00228135
0.00220092
0.00210697
0.00201418
0.00194043
0.00189145
0.00186051
0.00183012
0.00178148
0.00169771
0.00157339
0.0014128
0.00121804
0.00102408
0.000890394
0.00240108
0.0025822
0.00274397
0.00286833
0.00294522
0.00297651
0.00297088
0.00293426
0.00288089
0.00281422
0.00274558
0.00267412
0.00261065
0.00256153
0.00251702
0.00246683
0.00238623
0.0022856
0.00218479
0.0021024
0.00204492
0.0020063
0.00197205
0.00192499
0.00185001
0.00173317
0.0015775
0.00138817
0.00118814
0.00102453
0.00231854
0.00247614
0.00263924
0.00278476
0.00289068
0.00295321
0.00297706
0.00296911
0.0029382
0.0028915
0.00283827
0.00278142
0.00273284
0.00269545
0.0026646
0.00262238
0.00254203
0.00243745
0.00233087
0.00224242
0.00217829
0.00213267
0.00209589
0.00205152
0.0019828
0.00187418
0.00172762
0.00154671
0.00134561
0.00115826
0.00221293
0.00233672
0.00249178
0.00265188
0.00278732
0.00288295
0.00293868
0.00295932
0.00295449
0.00293015
0.00289559
0.0028568
0.00282282
0.00280234
0.00278426
0.00275036
0.00267184
0.00256543
0.00245566
0.00236384
0.00229467
0.00224402
0.00220594
0.00216181
0.0020968
0.00199858
0.00186367
0.00169239
0.00149413
0.00129123
0.00210659
0.00217657
0.00231265
0.00248092
0.00264254
0.00277223
0.00286211
0.00291287
0.00293484
0.00293523
0.00292178
0.00290276
0.00288663
0.00288259
0.00287828
0.00285314
0.00277739
0.00267201
0.00256174
0.00246899
0.00239688
0.0023447
0.00230186
0.00225683
0.0021951
0.00210604
0.001985
0.00182233
0.00162798
0.00141735
0.00201454
0.00201176
0.00211729
0.00228324
0.00246457
0.00262591
0.0027503
0.00283481
0.00288556
0.00291124
0.00292061
0.00292292
0.00292628
0.00293954
0.00294907
0.00293235
0.00286169
0.00275905
0.00265196
0.00256068
0.0024865
0.00242865
0.00238243
0.00233827
0.00228025
0.00220224
0.00209077
0.00193623
0.00174587
0.00153005
0.00194346
0.0018693
0.00192944
0.00207648
0.00226531
0.0024518
0.00260883
0.00272708
0.00280937
0.00286312
0.00289611
0.00292041
0.00294413
0.0029743
0.00299827
0.00299014
0.00292715
0.00282872
0.00272468
0.00263389
0.00255812
0.00249797
0.0024494
0.00240774
0.00235457
0.00228725
0.00218375
0.0020349
0.00184755
0.00162793
0.0019444
0.00178915
0.00178177
0.00188646
0.00206307
0.00226171
0.00244512
0.00259496
0.0027088
0.00279174
0.00285141
0.00289801
0.00294215
0.00298908
0.00302752
0.00302869
0.00297587
0.00288482
0.00278758
0.00270116
0.00262529
0.00256306
0.00251343
0.00247017
0.00242366
0.00236
0.00226199
0.00211822
0.00193298
0.00171021
0.00200763
0.00180667
0.0017105
0.00174686
0.00188431
0.00207375
0.0022705
0.00244566
0.00258872
0.00270057
0.00278734
0.00285813
0.00292241
0.00298587
0.00303811
0.00304987
0.0030094
0.00292902
0.00283961
0.00275885
0.00268702
0.00262518
0.00257604
0.00253158
0.00248667
0.00242306
0.00232729
0.00218749
0.00200276
0.0017768
0.00214464
0.001907
0.00174365
0.00169414
0.00176358
0.00191351
0.00210204
0.00228986
0.00245578
0.00259387
0.00270682
0.00280171
0.00288659
0.00296594
0.0030314
0.00305504
0.00302871
0.00296197
0.00288194
0.00280794
0.00274198
0.00268494
0.00263688
0.00259016
0.00254206
0.00247678
0.0023807
0.00224262
0.00205726
0.00182797
0.00237229
0.0021102
0.0018919
0.00175542
0.00172525
0.00181174
0.00196255
0.00214252
0.00231922
0.00247721
0.00261319
0.00273053
0.00283495
0.00292988
0.00300779
0.00304416
0.00303329
0.00298301
0.00291405
0.0028489
0.00279039
0.00273978
0.00269216
0.00264191
0.00258948
0.0025212
0.00242296
0.00228384
0.0020972
0.00186438
0.00267524
0.00239912
0.00214233
0.00193341
0.00180761
0.00178764
0.00187822
0.00202215
0.00219081
0.0023576
0.00251021
0.00264595
0.00276694
0.00287643
0.00296483
0.00301404
0.00301911
0.00298818
0.00293238
0.0028784
0.00282822
0.00278295
0.00273516
0.00268299
0.00262754
0.00255614
0.00245469
0.0023127
0.00212371
0.00188707
0.00302259
0.00274032
0.00245944
0.00219888
0.00199085
0.00187113
0.0018596
0.00194645
0.0020831
0.00224263
0.00240121
0.00254766
0.00268066
0.00279936
0.00289436
0.00295423
0.00297524
0.00296367
0.00292546
0.00288351
0.0028424
0.0028007
0.00275769
0.00271231
0.00265712
0.00258286
0.00247714
0.00233088
0.00213785
0.0018974
0.00337689
0.0030934
0.00279925
0.00250624
0.00223929
0.00203377
0.00192406
0.00192062
0.00200376
0.00213858
0.00228683
0.00243161
0.00256664
0.00268714
0.00277971
0.00284478
0.00287979
0.00288698
0.00286875
0.00284353
0.00281615
0.00278817
0.00275685
0.00271783
0.00266572
0.00259559
0.00248978
0.00234076
0.00214274
0.00189738
0.00369691
0.00341623
0.00311769
0.00280819
0.00250554
0.00223876
0.00204454
0.0019502
0.00195529
0.00203322
0.00215698
0.00228529
0.00240644
0.00251047
0.00259512
0.00265884
0.00270548
0.00272637
0.00273021
0.00272696
0.00272019
0.00271209
0.00270015
0.00267869
0.0026364
0.00256495
0.00246471
0.00232532
0.00213047
0.00188541
0.00394029
0.00366773
0.00337374
0.00306169
0.00274349
0.00244065
0.00218496
0.00200911
0.00193004
0.00193437
0.00200049
0.00208875
0.00217988
0.00226114
0.00232524
0.00238296
0.00243168
0.00246584
0.00248955
0.00251013
0.00252805
0.00254492
0.00255833
0.0025621
0.0025455
0.00249295
0.00239919
0.00226085
0.00208336
0.00185237
0.00406763
0.00381152
0.00353253
0.00323126
0.00291491
0.00259823
0.00230591
0.00206839
0.00191097
0.00183631
0.00182613
0.00185659
0.00190631
0.00196084
0.00201424
0.0020667
0.00211423
0.00215529
0.00219123
0.00222775
0.00226282
0.00229829
0.00233234
0.00235927
0.0023694
0.00234893
0.00228163
0.00216529
0.00199692
0.00178331
0.00405365
0.00382573
0.00357451
0.00329817
0.00300021
0.00269059
0.00238816
0.00211954
0.00191201
0.00177731
0.00170472
0.00168681
0.00170716
0.00174833
0.00180495
0.00185867
0.00190446
0.00194308
0.00197916
0.00201249
0.0020437
0.00207515
0.00210683
0.00213504
0.00215237
0.00214765
0.00210638
0.00201395
0.00187139
0.00169094
0.00390861
0.00372449
0.00351738
0.00328305
0.00302251
0.00274405
0.00246368
0.00220582
0.00199636
0.00184543
0.00175092
0.00171794
0.0017305
0.00177218
0.00183428
0.0018891
0.00192997
0.00196085
0.00198682
0.00200501
0.0020178
0.00202751
0.00203533
0.00203964
0.00203556