/*--------------------------------*- C++ -*----------------------------------*\
| =========                 |                                                 |
| \\      /  F ield         | OpenFOAM: The Open Source CFD Toolbox           |
|  \\    /   O peration     | Version:  5.0                                   |
|   \\  /    A nd           | Web:      www.OpenFOAM.org                      |
|    \\/     M anipulation  |                                                 |
\*---------------------------------------------------------------------------*/
FoamFile
{
    version     2.0;
    format      ascii;
    class       surfaceScalarField;
    location    "50/porous";
    object      phi;
}
// * * * * * * * * * * * * * * * * * * * * * * * * * * * * * * * * * * * * * //

dimensions      [1 0 -1 0 0 0 0];

internalField   nonuniform List<scalar> 
104700
(
7.63561e-05
2.58506e-06
8.77255e-05
4.59304e-05
1.53634e-06
2.88893e-05
3.36417e-05
1.32522e-06
1.09635e-05
2.85509e-05
1.09215e-06
3.99857e-06
2.57427e-05
8.99192e-07
1.90902e-06
2.39892e-05
7.36499e-07
1.01706e-06
2.28308e-05
5.91961e-07
5.66455e-07
2.2052e-05
4.61205e-07
3.17523e-07
2.15269e-05
3.44966e-07
1.80132e-07
2.11737e-05
2.46291e-07
1.06914e-07
2.09384e-05
1.67318e-07
6.80605e-08
2.07842e-05
1.07942e-07
4.62598e-08
2.06856e-05
6.59655e-08
3.25756e-08
2.06246e-05
3.8002e-08
2.29938e-08
2.05883e-05
2.04191e-08
1.59187e-08
2.05676e-05
9.98295e-09
1.07098e-08
2.05564e-05
4.16288e-09
6.99638e-09
2.05508e-05
1.15133e-09
4.45356e-09
2.05483e-05
-2.52755e-10
2.77901e-09
2.05474e-05
-7.94804e-10
1.71861e-09
2.05472e-05
-9.07863e-10
1.06274e-09
2.05474e-05
-8.30384e-10
6.6103e-10
2.05477e-05
-6.8931e-10
4.19346e-10
2.05479e-05
-5.42285e-10
2.71492e-10
2.05482e-05
-4.12367e-10
1.79095e-10
2.05483e-05
-3.06107e-10
1.21326e-10
2.05485e-05
-2.23348e-10
8.44971e-11
2.05486e-05
-1.60185e-10
6.02462e-11
2.05486e-05
-1.12811e-10
4.33576e-11
2.05487e-05
-7.70101e-11
3.11668e-11
2.05487e-05
-5.00688e-11
2.27658e-11
2.05487e-05
-2.85724e-11
1.47571e-11
2.05487e-05
-9.89225e-12
7.07407e-12
2.05487e-05
6.97048e-12
1.30237e-12
2.05487e-05
3.81611e-11
-3.52221e-12
2.05486e-05
5.52708e-11
-1.92171e-12
2.05484e-05
2.20191e-10
4.32745e-11
2.05482e-05
1.32935e-10
1.73622e-11
2.05472e-05
1.59806e-09
-5.42223e-10
1.40028e-09
6.02845e-10
7.78253e-05
1.68757e-06
8.97389e-05
4.8491e-05
1.29869e-06
2.9572e-05
3.69683e-05
1.2276e-06
1.16203e-05
3.24197e-05
1.05005e-06
4.59074e-06
3.0064e-05
8.76073e-07
2.37881e-06
2.86814e-05
7.07333e-07
1.41177e-06
2.78256e-05
5.42108e-07
9.05686e-07
2.72901e-05
3.86783e-07
6.09937e-07
2.69555e-05
2.49946e-07
4.2958e-07
2.67467e-05
1.39357e-07
3.15771e-07
2.66167e-05
5.8639e-08
2.38693e-07
2.65365e-05
6.46799e-09
1.81632e-07
2.64881e-05
-2.21872e-08
1.36535e-07
2.64599e-05
-3.39749e-08
1.00162e-07
2.64444e-05
-3.52938e-08
7.12528e-08
2.64365e-05
-3.11946e-08
4.90667e-08
2.6433e-05
-2.50935e-08
3.2752e-08
2.64319e-05
-1.89631e-08
2.12563e-08
2.64319e-05
-1.37183e-08
1.34658e-08
2.64323e-05
-9.62494e-09
8.36292e-09
2.64329e-05
-6.61647e-09
5.11738e-09
2.64335e-05
-4.49343e-09
3.10438e-09
2.6434e-05
-3.03489e-09
1.87772e-09
2.64343e-05
-2.04903e-09
1.13876e-09
2.64346e-05
-1.388e-09
6.96474e-10
2.64348e-05
-9.4505e-10
4.32668e-10
2.64349e-05
-6.46391e-10
2.73894e-10
2.6435e-05
-4.4306e-10
1.77191e-10
2.64351e-05
-3.02923e-10
1.16987e-10
2.64351e-05
-2.04232e-10
7.84733e-11
2.64352e-05
-1.32747e-10
5.25082e-11
2.64352e-05
-7.83338e-11
3.27069e-11
2.64352e-05
-3.19167e-11
1.78584e-11
2.64352e-05
1.07831e-11
4.96928e-12
2.64352e-05
7.24725e-11
-4.48158e-12
2.64351e-05
1.32853e-10
-2.0703e-11
2.64349e-05
3.49272e-10
3.36967e-11
2.64349e-05
4.06683e-10
-1.94654e-10
2.64339e-05
1.71532e-09
8.95134e-10
1.37169e-09
1.71542e-09
7.76343e-05
1.2291e-06
8.94909e-05
4.84692e-05
1.23326e-06
2.92305e-05
3.7112e-05
1.19764e-06
1.13872e-05
3.26868e-05
1.04565e-06
4.42958e-06
3.04343e-05
8.80564e-07
2.24801e-06
2.91308e-05
7.17624e-07
1.29326e-06
2.83312e-05
5.59311e-07
7.82344e-07
2.78318e-05
4.12488e-07
4.7377e-07
2.75163e-05
2.84138e-07
2.81314e-07
2.73132e-05
1.79797e-07
1.62584e-07
2.71796e-05
1.01611e-07
9.06394e-08
2.70901e-05
4.80138e-08
4.80333e-08
2.70295e-05
1.47877e-08
2.35523e-08
2.69889e-05
-3.3761e-09
1.00781e-08
2.6962e-05
-1.15493e-08
3.11491e-09
2.69447e-05
-1.38044e-08
-9.91538e-11
2.69339e-05
-1.30119e-08
-1.24268e-09
2.69273e-05
-1.09692e-08
-1.40488e-09
2.69234e-05
-8.66924e-09
-1.19169e-09
2.69213e-05
-6.58038e-09
-8.80978e-10
2.69201e-05
-4.86867e-09
-5.95894e-10
2.69195e-05
-3.54546e-09
-3.75348e-10
2.69193e-05
-2.55807e-09
-2.23035e-10
2.69192e-05
-1.83687e-09
-1.2523e-10
2.69192e-05
-1.31548e-09
-6.43222e-11
2.69192e-05
-9.40431e-10
-2.95128e-11
2.69192e-05
-6.70869e-10
-1.03797e-11
2.69193e-05
-4.76251e-10
9.1871e-13
2.69193e-05
-3.3481e-10
5.68433e-12
2.69193e-05
-2.3031e-10
8.05406e-12
2.69193e-05
-1.51231e-10
7.38346e-12
2.69193e-05
-8.85499e-11
4.86558e-12
2.69193e-05
-3.27901e-11
8.3355e-13
2.69193e-05
1.99388e-11
-2.84656e-12
2.69193e-05
9.23782e-11
-4.25018e-12
2.69192e-05
1.66772e-10
-6.63846e-12
2.69192e-05
3.73237e-10
7.14018e-11
2.69192e-05
4.70273e-10
-9.08264e-11
2.69181e-05
1.30036e-09
1.48608e-09
1.11383e-09
1.86579e-09
7.73937e-05
8.6719e-07
8.96349e-05
4.81932e-05
1.0323e-06
2.94014e-05
3.68655e-05
1.03199e-06
1.14934e-05
3.24846e-05
9.25238e-07
4.50139e-06
3.02763e-05
7.93141e-07
2.29569e-06
2.90109e-05
6.55035e-07
1.32801e-06
2.82427e-05
5.16747e-07
8.10761e-07
2.77686e-05
3.85886e-07
5.00731e-07
2.74736e-05
2.69438e-07
3.09696e-07
2.72872e-05
1.72882e-07
1.93245e-07
2.71672e-05
9.88216e-08
1.22834e-07
2.70885e-05
4.66667e-08
8.0049e-08
2.70365e-05
1.33495e-08
5.34483e-08
2.70023e-05
-5.46413e-09
3.62957e-08
2.69801e-05
-1.42271e-08
2.48173e-08
2.69662e-05
-1.67494e-08
1.69293e-08
2.69576e-05
-1.58834e-08
1.14362e-08
2.69525e-05
-1.35248e-08
7.6192e-09
2.69497e-05
-1.07902e-08
4.99833e-09
2.69481e-05
-8.24921e-09
3.23094e-09
2.69473e-05
-6.12917e-09
2.06023e-09
2.69469e-05
-4.46959e-09
1.30078e-09
2.69468e-05
-3.2212e-09
8.15324e-10
2.69467e-05
-2.30551e-09
5.09563e-10
2.69467e-05
-1.64439e-09
3.1912e-10
2.69468e-05
-1.17058e-09
2.02693e-10
2.69468e-05
-8.31624e-10
1.3015e-10
2.69468e-05
-5.88587e-10
8.60416e-11
2.69468e-05
-4.12847e-10
5.81979e-11
2.69468e-05
-2.84008e-10
3.99912e-11
2.69468e-05
-1.86772e-10
2.73863e-11
2.69468e-05
-1.10281e-10
1.81453e-11
2.69468e-05
-4.39599e-11
9.89057e-12
2.69468e-05
1.8153e-11
1.65178e-12
2.69468e-05
9.6864e-11
-1.05635e-12
2.69468e-05
1.77441e-10
-3.36497e-12
2.69468e-05
3.54861e-10
7.89646e-11
2.69469e-05
4.56732e-10
-8.35791e-11
2.69456e-05
9.47266e-10
1.61944e-09
8.66318e-10
2.01544e-09
7.727e-05
6.74251e-07
8.95896e-05
4.80532e-05
9.2197e-07
2.93271e-05
3.67424e-05
9.59195e-07
1.13836e-05
3.23812e-05
8.88852e-07
4.39762e-06
3.01912e-05
7.80699e-07
2.20243e-06
2.8942e-05
6.59171e-07
1.24506e-06
2.8189e-05
5.34049e-07
7.35754e-07
2.77293e-05
4.13778e-07
4.31811e-07
2.74477e-05
3.05054e-07
2.46012e-07
2.7273e-05
2.1276e-07
1.34831e-07
2.71621e-05
1.39323e-07
7.03302e-08
2.70899e-05
8.46162e-08
3.42585e-08
2.70418e-05
4.652e-08
1.49369e-08
2.70094e-05
2.18108e-08
5.13789e-09
2.69876e-05
7.01472e-09
5.42819e-10
2.69731e-05
-9.96096e-10
-1.24396e-09
2.69636e-05
-4.70958e-09
-1.62889e-09
2.69574e-05
-5.91581e-09
-1.46954e-09
2.69536e-05
-5.80043e-09
-1.13873e-09
2.69512e-05
-5.09121e-09
-8.04592e-10
2.69498e-05
-4.1987e-09
-5.30994e-10
2.6949e-05
-3.32958e-09
-3.3131e-10
2.69486e-05
-2.57268e-09
-1.95675e-10
2.69483e-05
-1.95189e-09
-1.10052e-10
2.69482e-05
-1.46201e-09
-5.7564e-11
2.69481e-05
-1.08364e-09
-2.62899e-11
2.69481e-05
-7.95737e-10
-9.02257e-12
2.69481e-05
-5.78032e-10
1.62789e-12
2.69481e-05
-4.13863e-10
5.78956e-12
2.69481e-05
-2.89067e-10
7.56896e-12
2.69481e-05
-1.92177e-10
6.95189e-12
2.6948e-05
-1.14347e-10
4.97905e-12
2.6948e-05
-4.56583e-11
1.62797e-12
2.6948e-05
1.88063e-11
-3.33472e-12
2.69481e-05
9.54685e-11
-4.03214e-12
2.69481e-05
1.7429e-10
-3.47988e-12
2.6948e-05
3.17998e-10
8.21134e-11
2.69481e-05
4.12773e-10
-7.20908e-11
2.69468e-05
6.87896e-10
1.65951e-09
6.68118e-10
2.06651e-09
7.71955e-05
5.16581e-07
8.96288e-05
4.79377e-05
7.70556e-07
2.94092e-05
3.66115e-05
8.22779e-07
1.14627e-05
3.22504e-05
7.78006e-07
4.47189e-06
3.00685e-05
6.93337e-07
2.26929e-06
2.88313e-05
5.91996e-07
1.30441e-06
2.80923e-05
4.84674e-07
7.88398e-07
2.76475e-05
3.79643e-07
4.78922e-07
2.73807e-05
2.83278e-07
2.88549e-07
2.722e-05
2.00221e-07
1.73243e-07
2.71217e-05
1.33003e-07
1.04622e-07
2.70602e-05
8.19763e-08
6.41987e-08
2.70207e-05
4.571e-08
4.03019e-08
2.69949e-05
2.16783e-08
2.59099e-08
2.6978e-05
6.96947e-09
1.69786e-08
2.69669e-05
-1.17359e-09
1.12552e-08
2.69597e-05
-5.03688e-09
7.48724e-09
2.69552e-05
-6.3322e-09
4.96868e-09
2.69523e-05
-6.23649e-09
3.27416e-09
2.69506e-05
-5.49678e-09
2.13981e-09
2.69496e-05
-4.54638e-09
1.38515e-09
2.69489e-05
-3.61112e-09
8.89048e-10
2.69486e-05
-2.79163e-09
5.6855e-10
2.69484e-05
-2.11746e-09
3.60597e-10
2.69483e-05
-1.58438e-09
2.29404e-10
2.69482e-05
-1.17322e-09
1.48146e-10
2.69482e-05
-8.60802e-10
9.59702e-11
2.69482e-05
-6.25178e-10
6.51167e-11
2.69481e-05
-4.47667e-10
4.46111e-11
2.69481e-05
-3.13175e-10
3.22883e-11
2.69481e-05
-2.09261e-10
2.24534e-11
2.69481e-05
-1.25905e-10
1.49982e-11
2.69481e-05
-5.37797e-11
7.65585e-12
2.69481e-05
1.21594e-11
1.5318e-12
2.69481e-05
8.60166e-11
-1.16993e-12
2.69481e-05
1.60414e-10
-1.89899e-12
2.69481e-05
2.73903e-10
8.35279e-11
2.69482e-05
3.55437e-10
-6.96327e-11
2.69468e-05
5.0646e-10
1.66939e-09
5.13787e-10
2.11367e-09
7.71457e-05
4.16148e-07
8.96215e-05
4.78594e-05
6.59578e-07
2.93973e-05
3.65272e-05
7.2628e-07
1.14287e-05
3.21709e-05
7.04697e-07
4.42963e-06
2.99973e-05
6.41396e-07
2.22546e-06
2.87699e-05
5.58061e-07
1.26138e-06
2.80413e-05
4.66092e-07
7.4723e-07
2.76069e-05
3.73813e-07
4.40148e-07
2.73502e-05
2.87432e-07
2.52592e-07
2.71985e-05
2.11382e-07
1.40502e-07
2.71078e-05
1.48217e-07
7.54905e-08
2.70522e-05
9.86342e-08
3.89925e-08
2.70169e-05
6.18123e-08
1.9174e-08
2.69939e-05
3.59381e-08
8.79194e-09
2.69785e-05
1.87621e-08
3.58865e-09
2.69681e-05
8.0433e-09
1.13655e-09
2.69612e-05
1.82792e-09
8.29721e-11
2.69566e-05
-1.43034e-09
-2.76758e-10
2.69535e-05
-2.86589e-09
-3.21158e-10
2.69515e-05
-3.25607e-09
-2.59618e-10
2.69503e-05
-3.1015e-09
-1.79038e-10
2.69495e-05
-2.70524e-09
-1.09251e-10
2.6949e-05
-2.23774e-09
-5.8747e-11
2.69487e-05
-1.78735e-09
-2.5685e-11
2.69485e-05
-1.3921e-09
-6.92521e-12
2.69484e-05
-1.06357e-09
4.40668e-12
2.69483e-05
-7.99792e-10
9.96736e-12
2.69482e-05
-5.92118e-10
1.27235e-11
2.69482e-05
-4.30418e-10
1.28805e-11
2.69482e-05
-3.0412e-10
1.38196e-11
2.69482e-05
-2.05181e-10
1.02562e-11
2.69481e-05
-1.24721e-10
7.01721e-12
2.69481e-05
-5.51379e-11
3.27323e-12
2.69481e-05
8.3758e-12
-1.68428e-12
2.69482e-05
7.55578e-11
-3.54765e-12
2.69482e-05
1.42615e-10
-3.85117e-12
2.69481e-05
2.31025e-10
8.2803e-11
2.69483e-05
2.98369e-10
-6.75322e-11
2.69467e-05
3.77084e-10
1.67225e-09
3.94596e-10
2.1376e-09
7.71184e-05
3.30573e-07
8.96339e-05
4.78058e-05
5.4455e-07
2.94276e-05
3.64588e-05
6.11639e-07
1.14617e-05
3.20969e-05
6.02279e-07
4.46433e-06
2.99234e-05
5.5429e-07
2.26057e-06
2.86998e-05
4.86412e-07
1.29525e-06
2.79776e-05
4.09357e-07
7.78955e-07
2.75513e-05
3.30778e-07
4.693e-07
2.73034e-05
2.56338e-07
2.79e-07
2.71606e-05
1.90089e-07
1.64073e-07
2.70783e-05
1.34453e-07
9.61417e-08
2.703e-05
9.02697e-08
5.66718e-08
2.70008e-05
5.70588e-08
3.38996e-08
2.69826e-05
3.34343e-08
2.06891e-08
2.69709e-05
1.75613e-08
1.28958e-08
2.69633e-05
7.54096e-09
8.18481e-09
2.69582e-05
1.66875e-09
5.26026e-09
2.69548e-05
-1.43966e-09
3.40327e-09
2.69525e-05
-2.82096e-09
2.20753e-09
2.6951e-05
-3.19957e-09
1.42994e-09
2.69501e-05
-3.05002e-09
9.24347e-10
2.69494e-05
-2.66314e-09
5.95129e-10
2.6949e-05
-2.20542e-09
3.81063e-10
2.69487e-05
-1.76282e-09
2.44537e-10
2.69485e-05
-1.37402e-09
1.58093e-10
2.69484e-05
-1.05063e-09
1.03393e-10
2.69483e-05
-7.90434e-10
6.85345e-11
2.69483e-05
-5.85468e-10
4.69861e-11
2.69482e-05
-4.26056e-10
3.47001e-11
2.69482e-05
-3.01917e-10
2.48725e-11
2.69482e-05
-2.04143e-10
1.8816e-11
2.69482e-05
-1.25283e-10
1.20867e-11
2.69482e-05
-5.83597e-11
5.82511e-12
2.69482e-05
2.17594e-12
-8.87015e-14
2.69482e-05
6.27722e-11
-1.58753e-12
2.69482e-05
1.21817e-10
-1.95813e-12
2.69482e-05
1.89884e-10
8.33742e-11
2.69483e-05
2.43935e-10
-6.61108e-11
2.69467e-05
2.83376e-10
1.67386e-09
3.02288e-10
2.15845e-09
7.70976e-05
2.66419e-07
8.96333e-05
4.77645e-05
4.50225e-07
2.94274e-05
3.64074e-05
5.16122e-07
1.14526e-05
3.20434e-05
5.17181e-07
4.44911e-06
2.9872e-05
4.83366e-07
2.24231e-06
2.86529e-05
4.30193e-07
1.27527e-06
2.79367e-05
3.67268e-07
7.58302e-07
2.75172e-05
3.0148e-07
4.48829e-07
2.72762e-05
2.37962e-07
2.5942e-07
2.71399e-05
1.80425e-07
1.45951e-07
2.70632e-05
1.31185e-07
7.99056e-08
2.70197e-05
9.12284e-08
4.25969e-08
2.69942e-05
6.04155e-08
2.2101e-08
2.69787e-05
3.78061e-08
1.11269e-08
2.69689e-05
2.20209e-08
5.40427e-09
2.69624e-05
1.15545e-08
2.50592e-09
2.69579e-05
4.99826e-09
1.09177e-09
2.69549e-05
1.16359e-09
4.35192e-10
2.69528e-05
-8.76574e-10
1.52967e-10
2.69514e-05
-1.79874e-09
4.59542e-11
2.69504e-05
-2.06924e-09
1.21648e-11
2.69497e-05
-1.99193e-09
8.2358e-12
2.69492e-05
-1.7534e-09
1.12544e-11
2.69489e-05
-1.46224e-09
1.40944e-11
2.69487e-05
-1.1753e-09
1.68957e-11
2.69485e-05
-9.19509e-10
1.71871e-11
2.69484e-05
-7.04042e-10
1.6523e-11
2.69483e-05
-5.28609e-10
1.59991e-11
2.69483e-05
-3.88152e-10
1.5457e-11
2.69482e-05
-2.77381e-10
1.36619e-11
2.69482e-05
-1.88775e-10
1.09231e-11
2.69482e-05
-1.16947e-10
8.08947e-12
2.69482e-05
-5.57507e-11
3.04335e-12
2.69482e-05
-1.8218e-12
-1.75557e-12
2.69482e-05
5.1194e-11
-4.4507e-12
2.69482e-05
1.01169e-10
-3.17325e-12
2.69482e-05
1.53955e-10
8.25762e-11
2.69483e-05
1.9607e-10
-6.56688e-11
2.69467e-05
2.14144e-10
1.67416e-09
2.30981e-10
2.17022e-09
7.70858e-05
2.09581e-07
8.96377e-05
4.77371e-05
3.59955e-07
2.9439e-05
3.63694e-05
4.1815e-07
1.14656e-05
3.2e-05
4.2321e-07
4.46337e-06
2.98268e-05
3.98738e-07
2.25782e-06
2.86087e-05
3.57148e-07
1.29118e-06
2.78954e-05
3.06607e-07
7.73912e-07
2.74803e-05
2.52998e-07
4.6363e-07
2.72445e-05
2.0072e-07
2.73066e-07
2.71137e-05
1.52976e-07
1.58211e-07
2.70424e-05
1.11808e-07
9.06422e-08
2.70038e-05
7.81548e-08
5.17458e-08
2.69825e-05
5.20118e-08
2.96741e-08
2.69704e-05
3.26911e-08
1.72101e-08
2.69632e-05
1.91084e-08
1.01365e-08
2.69586e-05
1.00438e-08
6.07334e-09
2.69556e-05
4.33235e-09
3.69828e-09
2.69535e-05
9.74945e-10
2.28267e-09
2.6952e-05
-8.18558e-10
1.4227e-09
2.6951e-05
-1.6314e-09
8.926e-10
2.69502e-05
-1.86871e-09
5.63686e-10
2.69496e-05
-1.79729e-09
3.56542e-10
2.69492e-05
-1.5824e-09
2.27481e-10
2.69489e-05
-1.32002e-09
1.45216e-10
2.69487e-05
-1.06151e-09
9.33702e-11
2.69486e-05
-8.30916e-10
6.18451e-11
2.69485e-05
-6.36367e-10
4.22065e-11
2.69484e-05
-4.77944e-10
3.05845e-11
2.69483e-05
-3.51655e-10
2.28836e-11
2.69483e-05
-2.51397e-10
1.77983e-11
2.69482e-05
-1.71559e-10
1.42094e-11
2.69482e-05
-1.06943e-10
8.65841e-12
2.69482e-05
-5.26773e-11
3.90201e-12
2.69482e-05
-4.99729e-12
-1.18057e-12
2.69482e-05
3.95912e-11
-3.47328e-12
2.69482e-05
8.13752e-11
-2.8312e-12
2.69482e-05
1.21444e-10
8.27284e-11
2.69483e-05
1.53769e-10
-6.62681e-11
2.69467e-05
1.60535e-10
1.67407e-09
1.7382e-10
2.18068e-09
7.70765e-05
1.61566e-07
8.96382e-05
4.77155e-05
2.80379e-07
2.94407e-05
3.63398e-05
3.29822e-07
1.1464e-05
3.19668e-05
3.37423e-07
4.45879e-06
2.97929e-05
3.21178e-07
2.2514e-06
2.85763e-05
2.90466e-07
1.28334e-06
2.7866e-05
2.51806e-07
7.65099e-07
2.74547e-05
2.09942e-07
4.54336e-07
2.72232e-05
1.68484e-07
2.63763e-07
2.70967e-05
1.30105e-07
1.49322e-07
2.70295e-05
9.65682e-08
8.25001e-08
2.69943e-05
6.87644e-08
4.45803e-08
2.69759e-05
4.68274e-08
2.36028e-08
2.6966e-05
3.03255e-08
1.22502e-08
2.69604e-05
1.84831e-08
6.22485e-09
2.6957e-05
1.03829e-08
3.088e-09
2.69547e-05
5.11963e-09
1.49169e-09
2.69531e-05
1.89564e-09
6.99786e-10
2.69519e-05
6.39924e-11
3.18309e-10
2.6951e-05
-8.64771e-10
1.41732e-10
2.69503e-05
-1.24184e-09
6.55005e-11
2.69497e-05
-1.3044e-09
3.18567e-11
2.69493e-05
-1.20523e-09
1.96529e-11
2.6949e-05
-1.0366e-09
1.3674e-11
2.69488e-05
-8.51633e-10
1.17882e-11
2.69487e-05
-6.76986e-10
1.08637e-11
2.69485e-05
-5.24328e-10
1.1907e-11
2.69484e-05
-3.97024e-10
1.10351e-11
2.69484e-05
-2.93652e-10
1.15762e-11
2.69483e-05
-2.10968e-10
1.07122e-11
2.69483e-05
-1.44482e-10
8.91376e-12
2.69482e-05
-9.04286e-11
5.06106e-12
2.69482e-05
-4.51389e-11
1.24512e-12
2.69482e-05
-5.64871e-12
-2.5667e-12
2.69482e-05
3.05006e-11
-4.31677e-12
2.69483e-05
6.3622e-11
-3.79944e-12
2.69482e-05
9.31879e-11
8.32199e-11
2.69483e-05
1.17356e-10
-6.6655e-11
2.69467e-05
1.18317e-10
1.67432e-09
1.28012e-10
2.18653e-09
7.7071e-05
1.17334e-07
8.96399e-05
4.77012e-05
2.04849e-07
2.94454e-05
3.63189e-05
2.42904e-07
1.14693e-05
3.19419e-05
2.499e-07
4.46446e-06
2.97663e-05
2.39074e-07
2.2578e-06
2.85495e-05
2.17106e-07
1.29013e-06
2.78405e-05
1.88882e-07
7.71939e-07
2.74315e-05
1.57978e-07
4.60934e-07
2.7203e-05
1.27141e-07
2.69893e-07
2.70798e-05
9.84287e-08
1.54834e-07
2.70159e-05
7.32204e-08
8.73106e-08
2.69837e-05
5.22358e-08
4.86539e-08
2.6968e-05
3.56192e-08
2.69498e-08
2.69603e-05
2.30797e-08
1.49151e-08
2.69565e-05
1.40565e-08
8.28107e-09
2.69544e-05
7.87194e-09
4.62497e-09
2.6953e-05
3.84797e-09
2.60195e-09
2.69521e-05
1.38263e-09
1.47737e-09
2.69513e-05
-1.55525e-11
8.45728e-10
2.69507e-05
-7.20743e-10
4.88421e-10
2.69501e-05
-1.00201e-09
2.85527e-10
2.69497e-05
-1.04181e-09
1.67784e-10
2.69494e-05
-9.58018e-10
9.95774e-11
2.69491e-05
-8.21862e-10
6.0215e-11
2.69489e-05
-6.7389e-10
3.89688e-11
2.69487e-05
-5.35019e-10
2.55806e-11
2.69486e-05
-4.13954e-10
1.83696e-11
2.69485e-05
-3.13436e-10
1.47952e-11
2.69484e-05
-2.31491e-10
1.26405e-11
2.69483e-05
-1.66028e-10
1.07734e-11
2.69483e-05
-1.13486e-10
8.51087e-12
2.69482e-05
-7.10787e-11
6.06256e-12
2.69482e-05
-3.55562e-11
1.84026e-12
2.69482e-05
-5.06338e-12
-3.09338e-12
2.69482e-05
2.24236e-11
-4.28711e-12
2.69483e-05
4.71351e-11
-3.60599e-12
2.69482e-05
6.79483e-11
8.28715e-11
2.69483e-05
8.45303e-11
-6.59784e-11
2.69467e-05
8.36562e-11
1.67413e-09
9.01386e-11
2.19127e-09
7.7067e-05
7.67983e-08
8.96402e-05
4.76907e-05
1.34483e-07
2.94467e-05
3.63035e-05
1.60616e-07
1.14695e-05
3.19238e-05
1.66131e-07
4.46351e-06
2.97469e-05
1.59881e-07
2.25608e-06
2.85302e-05
1.46047e-07
1.2877e-06
2.78224e-05
1.27837e-07
7.6889e-07
2.74153e-05
1.07608e-07
4.57433e-07
2.71891e-05
8.71984e-08
2.66151e-07
2.70685e-05
6.80153e-08
1.51077e-07
2.70069e-05
5.10262e-08
8.37343e-08
2.6977e-05
3.67616e-08
4.54161e-08
2.69631e-05
2.53652e-08
2.41451e-08
2.69569e-05
1.66812e-08
1.2584e-08
2.69542e-05
1.03644e-08
6.41396e-09
2.69529e-05
5.97983e-09
3.18144e-09
2.69522e-05
3.08325e-09
1.52216e-09
2.69516e-05
1.27363e-09
6.91914e-10
2.69511e-05
2.18762e-10
2.91399e-10
2.69506e-05
-3.3808e-10
1.04648e-10
2.69501e-05
-5.83993e-10
2.51587e-11
2.69497e-05
-6.48523e-10
-5.45505e-12
2.69494e-05
-6.15662e-10
-1.34499e-11
2.69491e-05
-5.38204e-10
-1.24008e-11
2.69489e-05
-4.46909e-10
-8.12922e-12
2.69487e-05
-3.57674e-10
-4.06812e-12
2.69486e-05
-2.78373e-10
7.76452e-13
2.69485e-05
-2.11245e-10
3.94659e-12
2.69484e-05
-1.56376e-10
4.86971e-12
2.69483e-05
-1.11948e-10
5.89391e-12
2.69483e-05
-7.62695e-11
5.71742e-12
2.69482e-05
-4.70561e-11
4.51983e-12
2.69482e-05
-2.30882e-11
7.03679e-13
2.69482e-05
-2.2826e-12
-3.75321e-12
2.69482e-05
1.63935e-11
-4.63094e-12
2.69483e-05
3.253e-11
-3.8985e-12
2.69482e-05
4.5798e-11
8.35222e-11
2.69483e-05
5.60586e-11
-6.59641e-11
2.69467e-05
5.40865e-11
1.67536e-09
5.75024e-11
2.19492e-09
7.70647e-05
3.79001e-08
8.96408e-05
4.76844e-05
6.63781e-08
2.94485e-05
3.6294e-05
7.96051e-08
1.14715e-05
3.1912e-05
8.2442e-08
4.46563e-06
2.97339e-05
7.94905e-08
2.25853e-06
2.85168e-05
7.27217e-08
1.29036e-06
2.78094e-05
6.37335e-08
7.71573e-07
2.74033e-05
5.36942e-08
4.59986e-07
2.71785e-05
4.35262e-08
2.68463e-07
2.70595e-05
3.39454e-08
1.53088e-07
2.69997e-05
2.54478e-08
8.54264e-08
2.69713e-05
1.8309e-08
4.67966e-08
2.69588e-05
1.26067e-08
2.52391e-08
2.69538e-05
8.26568e-09
1.3424e-08
2.69521e-05
5.11241e-09
7.03932e-09
2.69515e-05
2.92867e-09
3.63025e-09
2.69512e-05
1.49096e-09
1.83394e-09
2.6951e-05
5.96919e-10
8.99195e-10
2.69507e-05
7.9302e-11
4.22332e-10
2.69504e-05
-1.90292e-10
1.83877e-10
2.695e-05
-3.06229e-10
6.97401e-11
2.69497e-05
-3.33303e-10
1.86734e-11
2.69494e-05
-3.13277e-10
-2.14063e-12
2.69492e-05
-2.71974e-10
-8.13825e-12
2.69489e-05
-2.24357e-10
-8.16511e-12
2.69488e-05
-1.78601e-10
-4.08657e-12
2.69486e-05
-1.38418e-10
-1.50897e-12
2.69485e-05
-1.04321e-10
1.46297e-12
2.69484e-05
-7.66871e-11
4.10523e-12
2.69483e-05
-5.42185e-11
5.14647e-12
2.69483e-05
-3.58311e-11
4.67728e-12
2.69483e-05
-2.10707e-11
2.98653e-12
2.69482e-05
-8.45811e-12
7.70992e-14
2.69482e-05
1.9623e-12
-4.38722e-12
2.69483e-05
1.10932e-11
-5.52196e-12
2.69483e-05
1.92916e-11
-3.93283e-12
2.69482e-05
2.52214e-11
8.29201e-11
2.69483e-05
2.96514e-11
-6.56085e-11
2.69467e-05
2.75595e-11
1.67514e-09
2.80635e-11
2.19751e-09
7.70636e-05
4.42625e-12
8.96409e-05
4.76811e-05
7.02226e-12
2.94489e-05
3.62889e-05
9.29527e-12
1.14717e-05
3.19058e-05
1.06503e-11
4.46561e-06
2.97269e-05
9.05518e-12
2.25837e-06
2.85096e-05
3.59812e-12
1.29002e-06
2.78023e-05
-3.37245e-12
7.71018e-07
2.73968e-05
-9.00388e-12
4.59211e-07
2.71728e-05
-9.38852e-12
2.67507e-07
2.70548e-05
-3.5853e-12
1.52019e-07
2.69959e-05
7.43974e-12
8.43291e-08
2.69684e-05
2.08812e-11
4.57444e-08
2.69567e-05
3.39206e-11
2.42892e-08
2.69523e-05
4.45043e-11
1.26068e-08
2.6951e-05
5.18587e-11
6.36719e-09
2.69508e-05
5.52452e-11
3.09786e-09
2.69508e-05
5.56427e-11
1.42355e-09
2.69508e-05
5.34457e-11
5.92008e-10
2.69506e-05
4.95984e-11
1.96413e-10
2.69503e-05
4.466e-11
2.24178e-11
2.695e-05
3.91142e-11
-3.9575e-11
2.69497e-05
3.36942e-11
-5.31305e-11
2.69494e-05
2.84466e-11
-4.85671e-11
2.69492e-05
2.37365e-11
-3.88948e-11
2.6949e-05
1.95397e-11
-2.79358e-11
2.69488e-05
1.58839e-11
-1.85012e-11
2.69486e-05
1.30208e-11
-1.03716e-11
2.69485e-05
1.06272e-11
-4.56351e-12
2.69484e-05
8.97686e-12
3.5215e-13
2.69483e-05
7.91337e-12
2.39796e-12
2.69483e-05
7.32246e-12
2.83516e-12
2.69483e-05
6.94218e-12
2.49382e-12
2.69482e-05
7.03599e-12
-1.07537e-12
2.69482e-05
7.15756e-12
-4.30672e-12
2.69483e-05
7.2333e-12
-5.19429e-12
2.69483e-05
6.54535e-12
-3.82656e-12
2.69482e-05
5.71289e-12
8.19342e-11
2.69483e-05
4.37013e-12
-6.58971e-11
2.69467e-05
2.36137e-12
1.67504e-09
2.71157e-13
2.19787e-09
7.70636e-05
-3.78913e-08
8.96409e-05
4.76811e-05
-6.63643e-08
2.94489e-05
3.62889e-05
-7.95868e-08
1.14717e-05
3.19058e-05
-8.24217e-08
4.46561e-06
2.97269e-05
-7.94731e-08
2.25837e-06
2.85096e-05
-7.27145e-08
1.29001e-06
2.78023e-05
-6.37397e-08
7.71011e-07
2.73968e-05
-5.37099e-08
4.59205e-07
2.71729e-05
-4.35415e-08
2.675e-07
2.70548e-05
-3.39484e-08
1.52015e-07
2.69959e-05
-2.54288e-08
8.43264e-08
2.69685e-05
-1.82643e-08
4.57441e-08
2.69567e-05
-1.2537e-08
2.42906e-08
2.69523e-05
-8.17522e-09
1.26102e-08
2.6951e-05
-5.00844e-09
6.37027e-09
2.69508e-05
-2.81808e-09
3.10065e-09
2.69508e-05
-1.38019e-09
1.42622e-09
2.69508e-05
-4.90871e-10
5.95011e-10
2.69506e-05
1.87413e-11
1.99275e-10
2.69503e-05
2.78472e-10
2.43372e-11
2.695e-05
3.83413e-10
-3.88049e-11
2.69497e-05
3.99682e-10
-5.23028e-11
2.69494e-05
3.69448e-10
-4.73953e-11
2.69492e-05
3.18631e-10
-3.75295e-11
2.6949e-05
2.62823e-10
-2.72027e-11
2.69488e-05
2.10194e-10
-1.77831e-11
2.69486e-05
1.63882e-10
-1.00175e-11
2.69485e-05
1.2547e-10
-3.40674e-12
2.69484e-05
9.45563e-11
-3.44177e-13
2.69483e-05
6.98551e-11
1.89583e-12
2.69483e-05
5.05148e-11
2.35195e-12
2.69483e-05
3.53966e-11
1.37842e-12
2.69482e-05
2.28585e-11
-1.19309e-12
2.69482e-05
1.25218e-11
-4.44632e-12
2.69483e-05
2.91624e-12
-5.08225e-12
2.69483e-05
-5.72205e-12
-3.82974e-12
2.69482e-05
-1.35902e-11
8.27346e-11
2.69483e-05
-2.07632e-11
-6.52348e-11
2.69467e-05
-2.24162e-11
1.67473e-09
-2.72798e-11
2.19803e-09
7.70647e-05
-7.679e-08
8.96408e-05
4.76844e-05
-1.3447e-07
2.94485e-05
3.6294e-05
-1.60598e-07
1.14715e-05
3.1912e-05
-1.66111e-07
4.46563e-06
2.97339e-05
-1.59864e-07
2.25853e-06
2.85169e-05
-1.4604e-07
1.29035e-06
2.78094e-05
-1.27843e-07
7.71559e-07
2.74034e-05
-1.07622e-07
4.59972e-07
2.71786e-05
-8.72112e-08
2.68453e-07
2.70596e-05
-6.80152e-08
1.53082e-07
2.69997e-05
-5.10046e-08
8.54265e-08
2.69714e-05
-3.67148e-08
4.68022e-08
2.69589e-05
-2.52939e-08
2.52472e-08
2.69539e-05
-1.65911e-08
1.34338e-08
2.69521e-05
-1.02616e-08
7.04975e-09
2.69515e-05
-5.8713e-09
3.64008e-09
2.69512e-05
-2.97515e-09
1.84188e-09
2.6951e-05
-1.17031e-09
9.06641e-10
2.69507e-05
-1.23431e-10
4.27568e-10
2.69504e-05
4.2362e-10
1.87465e-10
2.695e-05
6.59217e-10
7.34708e-11
2.69497e-05
7.1291e-10
2.03795e-11
2.69494e-05
6.70099e-10
-2.00821e-13
2.69491e-05
5.83785e-10
-6.10254e-12
2.69489e-05
4.84368e-10
-6.59174e-12
2.69488e-05
3.88401e-10
-4.32462e-12
2.69486e-05
3.03398e-10
-1.57956e-12
2.69485e-05
2.31868e-10
1.83577e-12
2.69484e-05
1.73612e-10
4.16592e-12
2.69483e-05
1.27156e-10
5.006e-12
2.69483e-05
9.05991e-11
4.15445e-12
2.69483e-05
6.10017e-11
2.24881e-12
2.69482e-05
3.69684e-11
-6.13637e-13
2.69482e-05
1.64271e-11
-3.64023e-12
2.69483e-05
-2.1587e-12
-5.4565e-12
2.69483e-05
-1.91875e-11
-3.42583e-12
2.69482e-05
-3.41481e-11
8.29333e-11
2.69483e-05
-4.69572e-11
-6.52434e-11
2.69467e-05
-4.89831e-11
1.6753e-09
-5.65247e-11
2.19766e-09
7.7067e-05
-1.17326e-07
8.96402e-05
4.76907e-05
-2.04835e-07
2.94467e-05
3.63035e-05
-2.42886e-07
1.14695e-05
3.19238e-05
-2.49881e-07
4.46351e-06
2.97469e-05
-2.39058e-07
2.25607e-06
2.85303e-05
-2.17099e-07
1.28768e-06
2.78225e-05
-1.88886e-07
7.68869e-07
2.74154e-05
-1.57989e-07
4.57413e-07
2.71892e-05
-1.27149e-07
2.66135e-07
2.70686e-05
-9.84239e-08
1.51067e-07
2.7007e-05
-7.31943e-08
8.37346e-08
2.69771e-05
-5.21852e-08
4.54232e-08
2.69632e-05
-3.55458e-08
2.41566e-08
2.6957e-05
-2.29887e-08
1.2597e-08
2.69542e-05
-1.39547e-08
6.42787e-09
2.69529e-05
-7.76572e-09
3.19419e-09
2.69522e-05
-3.74271e-09
1.53329e-09
2.69516e-05
-1.28272e-09
7.01812e-10
2.69511e-05
1.07264e-10
2.98212e-10
2.69506e-05
8.02875e-10
1.10879e-10
2.69501e-05
1.07387e-09
2.89201e-11
2.69497e-05
1.1036e-09
-1.96565e-12
2.69494e-05
1.01024e-09
-1.04594e-11
2.69491e-05
8.65196e-10
-1.08639e-11
2.69489e-05
7.09632e-10
-7.45382e-12
2.69487e-05
5.64266e-10
-2.03525e-12
2.69486e-05
4.37758e-10
3.14049e-13
2.69485e-05
3.32786e-10
3.40641e-12
2.69484e-05
2.48208e-10
4.96317e-12
2.69483e-05
1.80814e-10
5.51721e-12
2.69483e-05
1.27459e-10
6.64863e-12
2.69482e-05
8.47001e-11
3.26458e-12
2.69482e-05
4.95796e-11
8.2332e-13
2.69482e-05
1.92286e-11
-2.88011e-12
2.69482e-05
-8.29921e-12
-4.46188e-12
2.69483e-05
-3.37517e-11
-3.32189e-12
2.69482e-05
-5.61342e-11
8.35987e-11
2.69483e-05
-7.55771e-11
-6.4893e-11
2.69467e-05
-7.83861e-11
1.67561e-09
-8.90796e-11
2.19521e-09
7.7071e-05
-1.61559e-07
8.96399e-05
4.77012e-05
-2.80366e-07
2.94454e-05
3.63189e-05
-3.29805e-07
1.14693e-05
3.19419e-05
-3.37404e-07
4.46446e-06
2.97663e-05
-3.21163e-07
2.25778e-06
2.85495e-05
-2.90459e-07
1.29011e-06
2.78405e-05
-2.51809e-07
7.71913e-07
2.74316e-05
-2.09952e-07
4.60907e-07
2.72031e-05
-1.6849e-07
2.69873e-07
2.70799e-05
-1.30096e-07
1.54827e-07
2.7016e-05
-9.65384e-08
8.73133e-08
2.69838e-05
-6.87113e-08
4.86664e-08
2.69681e-05
-4.67533e-08
2.69674e-08
2.69604e-05
-3.0236e-08
1.49356e-08
2.69565e-05
-1.83843e-08
8.30186e-09
2.69544e-05
-1.02811e-08
4.64269e-09
2.6953e-05
-5.01974e-09
2.61897e-09
2.69521e-05
-1.80142e-09
1.49042e-09
2.69513e-05
2.19949e-11
8.55898e-10
2.69507e-05
9.41515e-10
4.96606e-10
2.69501e-05
1.30919e-09
2.91242e-10
2.69497e-05
1.36235e-09
1.72229e-10
2.69494e-05
1.25387e-09
1.03254e-10
2.69491e-05
1.07734e-09
6.31124e-11
2.69489e-05
8.85179e-10
3.91504e-11
2.69487e-05
7.04e-10
2.62327e-11
2.69486e-05
5.4668e-10
1.86127e-11
2.69485e-05
4.15615e-10
1.49913e-11
2.69484e-05
3.09169e-10
1.28842e-11
2.69483e-05
2.25044e-10
1.17465e-11
2.69483e-05
1.57553e-10
8.60156e-12
2.69482e-05
1.03803e-10
6.1895e-12
2.69482e-05
5.86077e-11
1.70867e-12
2.69482e-05
1.97521e-11
-2.06072e-12
2.69482e-05
-1.64347e-11
-3.49914e-12
2.69483e-05
-5.00086e-11
-2.72792e-12
2.69482e-05
-8.11446e-11
8.29779e-11
2.69483e-05
-1.07747e-10
-6.52324e-11
2.69467e-05
-1.12917e-10
1.67552e-09
-1.26976e-10
2.192e-09
7.70765e-05
-2.09573e-07
8.96382e-05
4.77155e-05
-3.59942e-07
2.94407e-05
3.63398e-05
-4.18133e-07
1.1464e-05
3.19668e-05
-4.2319e-07
4.45878e-06
2.9793e-05
-3.98721e-07
2.25139e-06
2.85763e-05
-3.5714e-07
1.28331e-06
2.78661e-05
-3.06609e-07
7.65063e-07
2.74548e-05
-2.53003e-07
4.54301e-07
2.72233e-05
-2.0072e-07
2.63737e-07
2.70969e-05
-1.52961e-07
1.4931e-07
2.70296e-05
-1.11772e-07
8.25019e-08
2.69944e-05
-7.80965e-08
4.45948e-08
2.6976e-05
-5.19354e-08
2.36235e-08
2.69661e-05
-3.26011e-08
1.22733e-08
2.69604e-05
-1.90117e-08
6.24823e-09
2.6957e-05
-9.94578e-09
3.11019e-09
2.69547e-05
-4.23762e-09
1.51029e-09
2.69531e-05
-8.86223e-10
7.15518e-10
2.69519e-05
8.99191e-10
3.30415e-10
2.6951e-05
1.70279e-09
1.51162e-10
2.69503e-05
1.93083e-09
7.20119e-11
2.69497e-05
1.8505e-09
3.75247e-11
2.69493e-05
1.62729e-09
2.30015e-11
2.6949e-05
1.35742e-09
1.70564e-11
2.69488e-05
1.0921e-09
1.40021e-11
2.69486e-05
8.56235e-10
1.25162e-11
2.69485e-05
6.56896e-10
1.26778e-11
2.69484e-05
4.95077e-10
1.13013e-11
2.69483e-05
3.66056e-10
1.18512e-11
2.69483e-05
2.64397e-10
9.99501e-12
2.69483e-05
1.84082e-10
8.79925e-12
2.69482e-05
1.19631e-10
5.82653e-12
2.69482e-05
6.58944e-11
2.41781e-12
2.69482e-05
1.87732e-11
-1.87921e-12
2.69482e-05
-2.56682e-11
-2.92588e-12
2.69483e-05
-6.78468e-11
-2.2638e-12
2.69482e-05
-1.09339e-10
8.4526e-11
2.69483e-05
-1.44282e-10
-6.51553e-11
2.69467e-05
-1.5498e-10
1.6759e-09
-1.72721e-10
2.18771e-09
7.70858e-05
-2.66412e-07
8.96377e-05
4.77371e-05
-4.50214e-07
2.9439e-05
3.63694e-05
-5.16106e-07
1.14656e-05
3.2e-05
-5.17162e-07
4.46336e-06
2.98268e-05
-4.8335e-07
2.2578e-06
2.86087e-05
-4.30185e-07
1.29115e-06
2.78955e-05
-3.67267e-07
7.73872e-07
2.74804e-05
-3.01481e-07
4.63592e-07