/*--------------------------------*- C++ -*----------------------------------*\
| =========                 |                                                 |
| \\      /  F ield         | OpenFOAM: The Open Source CFD Toolbox           |
|  \\    /   O peration     | Version:  5.0                                   |
|   \\  /    A nd           | Web:      www.OpenFOAM.org                      |
|    \\/     M anipulation  |                                                 |
\*---------------------------------------------------------------------------*/
FoamFile
{
    version     2.0;
    format      ascii;
    class       volScalarField;
    location    "50/porous";
    object      T;
}
// * * * * * * * * * * * * * * * * * * * * * * * * * * * * * * * * * * * * * //

dimensions      [0 0 0 1 0 0 0];

internalField   nonuniform List<scalar> 
36000
(
400
400
399.997
399.982
399.928
399.376
398.707
397.795
396.502
394.704
392.313
389.307
385.736
381.724
377.444
373.098
368.88
364.959
361.456
358.44
355.934
353.919
352.348
351.158
350.282
349.654
349.214
348.914
348.713
348.582
348.498
348.445
348.413
348.395
348.386
348.614
348.797
348.95
349.083
349.2
400
400
399.996
399.981
399.927
399.426
398.813
397.977
396.796
395.154
392.964
390.19
386.857
383.059
378.946
374.698
370.504
366.534
362.923
359.758
357.08
354.887
353.147
351.806
350.802
350.069
349.547
349.184
348.938
348.774
348.667
348.598
348.556
348.531
348.517
348.703
348.857
348.99
349.109
349.215
400
400
399.996
399.981
399.928
399.434
398.833
398.013
396.855
395.241
393.084
390.34
387.034
383.254
379.149
374.9
370.697
366.712
363.083
359.898
357.199
354.986
353.228
351.871
350.853
350.109
349.579
349.21
348.959
348.791
348.682
348.612
348.569
348.544
348.529
348.711
348.863
348.995
349.112
349.217
400
400
399.996
399.981
399.927
399.432
398.829
398.007
396.845
395.226
393.063
390.314
387.004
383.225
379.121
374.875
370.676
366.696
363.071
359.889
357.193
354.982
353.226
351.87
350.852
350.109
349.579
349.21
348.959
348.792
348.682
348.613
348.569
348.544
348.53
348.712
348.864
348.995
349.112
349.217
400
400
399.997
399.981
399.928
399.433
398.831
398.01
396.849
395.231
393.068
390.32
387.01
383.229
379.125
374.878
370.678
366.697
363.07
359.888
357.192
354.981
353.225
351.869
350.852
350.108
349.578
349.21
348.959
348.791
348.682
348.612
348.569
348.544
348.53
348.712
348.863
348.995
349.112
349.217
400
400
399.997
399.981
399.928
399.432
398.829
398.006
396.842
395.221
393.054
390.302
386.99
383.208
379.105
374.861
370.663
366.685
363.062
359.881
357.187
354.978
353.222
351.867
350.85
350.107
349.577
349.209
348.958
348.791
348.682
348.612
348.569
348.544
348.529
348.711
348.863
348.995
349.112
349.216
400
400
399.997
399.981
399.929
399.433
398.83
398.009
396.846
395.227
393.061
390.31
386.998
383.216
379.112
374.867
370.669
366.689
363.065
359.884
357.188
354.979
353.223
351.868
350.851
350.107
349.577
349.209
348.958
348.79
348.681
348.612
348.568
348.543
348.529
348.711
348.863
348.995
349.111
349.216
400
400
399.997
399.982
399.929
399.433
398.831
398.009
396.847
395.228
393.062
390.31
386.997
383.215
379.112
374.867
370.669
366.69
363.066
359.885
357.189
354.979
353.223
351.868
350.851
350.107
349.577
349.208
348.957
348.79
348.681
348.611
348.568
348.543
348.529
348.711
348.863
348.995
349.111
349.216
400
400
399.997
399.982
399.93
399.434
398.833
398.013
396.854
395.237
393.073
390.323
387.011
383.229
379.125
374.878
370.679
366.699
363.073
359.89
357.193
354.982
353.225
351.869
350.852
350.108
349.577
349.208
348.957
348.79
348.681
348.611
348.568
348.543
348.529
348.711
348.863
348.994
349.111
349.216
400
400
399.997
399.982
399.93
399.435
398.835
398.017
396.859
395.244
393.082
390.333
387.022
383.241
379.136
374.889
370.689
366.708
363.08
359.896
357.198
354.986
353.228
351.871
350.853
350.109
349.578
349.209
348.957
348.79
348.681
348.611
348.568
348.543
348.529
348.711
348.863
348.994
349.111
349.216
400
400
399.997
399.982
399.931
399.436
398.837
398.021
396.866
395.255
393.096
390.349
387.04
383.259
379.154
374.906
370.704
366.72
363.09
359.904
357.204
354.99
353.231
351.873
350.854
350.109
349.578
349.209
348.957
348.79
348.68
348.611
348.567
348.542
348.529
348.711
348.863
348.994
349.111
349.216
400
400
399.997
399.982
399.931
399.437
398.84
398.026
396.874
395.265
393.11
390.366
387.058
383.278
379.173
374.923
370.72
366.734
363.101
359.913
357.211
354.995
353.235
351.876
350.856
350.111
349.579
349.209
348.957
348.79
348.68
348.611
348.567
348.542
348.529
348.711
348.863
348.994
349.111
349.216
400
400
399.997
399.982
399.932
399.438
398.843
398.031
396.882
395.278
393.126
390.385
387.079
383.3
379.195
374.944
370.738
366.749
363.115
359.924
357.22
355.002
353.239
351.879
350.858
350.112
349.58
349.21
348.958
348.79
348.681
348.611
348.567
348.542
348.528
348.711
348.863
348.994
349.111
349.216
400
400
399.997
399.982
399.932
399.44
398.845
398.037
396.891
395.291
393.142
390.405
387.102
383.324
379.218
374.966
370.757
366.766
363.129
359.935
357.228
355.009
353.244
351.883
350.861
350.114
349.581
349.211
348.958
348.79
348.681
348.611
348.567
348.542
348.528
348.711
348.863
348.994
349.111
349.216
400
400
399.997
399.983
399.933
399.441
398.848
398.042
396.9
395.304
393.16
390.426
387.125
383.347
379.241
374.988
370.777
366.783
363.143
359.946
357.237
355.015
353.249
351.886
350.863
350.115
349.582
349.211
348.959
348.791
348.681
348.611
348.567
348.542
348.528
348.711
348.863
348.994
349.111
349.216
400
400
399.997
399.983
399.933
399.441
398.848
398.042
396.9
395.303
393.158
390.424
387.123
383.345
379.239
374.985
370.775
366.781
363.141
359.945
357.236
355.014
353.249
351.886
350.863
350.115
349.582
349.211
348.959
348.791
348.681
348.611
348.567
348.542
348.528
348.711
348.863
348.994
349.111
349.216
400
400
399.997
399.982
399.932
399.44
398.845
398.036
396.89
395.289
393.14
390.402
387.098
383.319
379.213
374.961
370.753
366.762
363.125
359.932
357.226
355.007
353.243
351.882
350.86
350.113
349.581
349.21
348.958
348.79
348.681
348.611
348.567
348.542
348.528
348.711
348.863
348.994
349.111
349.216
400
400
399.997
399.982
399.932
399.438
398.842
398.03
396.881
395.275
393.122
390.38
387.074
383.294
379.188
374.937
370.731
366.743
363.109
359.919
357.216
354.999
353.237
351.878
350.857
350.111
349.58
349.209
348.958
348.79
348.68
348.61
348.567
348.542
348.528
348.711
348.863
348.994
349.111
349.216
400
400
399.997
399.982
399.931
399.437
398.839
398.025
396.872
395.262
393.105
390.359
387.05
383.269
379.163
374.914
370.711
366.726
363.094
359.907
357.207
354.992
353.232
351.874
350.855
350.11
349.578
349.209
348.957
348.79
348.68
348.61
348.567
348.542
348.528
348.711
348.863
348.994
349.111
349.216
400
400
399.997
399.982
399.931
399.436
398.837
398.02
396.864
395.251
393.09
390.342
387.03
383.248
379.143
374.894
370.693
366.71
363.082
359.897
357.198
354.986
353.227
351.871
350.852
350.108
349.578
349.208
348.957
348.79
348.68
348.611
348.567
348.542
348.529
348.711
348.863
348.994
349.111
349.216
400
400
399.997
399.982
399.93
399.435
398.834
398.015
396.856
395.239
393.075
390.324
387.011
383.228
379.122
374.876
370.676
366.696
363.07
359.888
357.191
354.98
353.224
351.868
350.851
350.107
349.577
349.208
348.957
348.79
348.68
348.611
348.568
348.543
348.529
348.711
348.863
348.994
349.111
349.216
400
400
399.997
399.982
399.93
399.434
398.832
398.012
396.85
395.231
393.065
390.312
386.998
383.214
379.109
374.863
370.665
366.686
363.061
359.881
357.186
354.976
353.221
351.866
350.849
350.106
349.576
349.208
348.957
348.79
348.681
348.611
348.568
348.543
348.529
348.711
348.863
348.994
349.111
349.216
400
400
399.997
399.982
399.929
399.433
398.83
398.007
396.843
395.222
393.053
390.298
386.983
383.199
379.094
374.85
370.653
366.676
363.053
359.874
357.181
354.973
353.218
351.864
350.848
350.105
349.576
349.207
348.957
348.79
348.681
348.611
348.568
348.543
348.529
348.711
348.863
348.994
349.111
349.216
400
400
399.997
399.981
399.929
399.432
398.829
398.006
396.842
395.22
393.051
390.297
386.982
383.199
379.094
374.849
370.651
366.674
363.051
359.872
357.179
354.972
353.217
351.864
350.848
350.105
349.576
349.208
348.957
348.79
348.681
348.611
348.568
348.543
348.529
348.711
348.863
348.995
349.111
349.216
400
400
399.997
399.981
399.928
399.432
398.828
398.003
396.837
395.213
393.043
390.288
386.973
383.19
379.085
374.841
370.645
366.669
363.047
359.87
357.177
354.97
353.217
351.863
350.848
350.105
349.576
349.208
348.957
348.79
348.681
348.612
348.569
348.543
348.529
348.711
348.863
348.995
349.111
349.216
400
400
399.997
399.981
399.928
399.432
398.83
398.007
396.844
395.223
393.057
390.305
386.993
383.21
379.105
374.858
370.659
366.68
363.056
359.876
357.182
354.974
353.219
351.865
350.849
350.106
349.577
349.209
348.958
348.791
348.682
348.612
348.569
348.544
348.53
348.712
348.863
348.995
349.112
349.217
400
400
399.996
399.981
399.927
399.432
398.828
398.004
396.839
395.218
393.051
390.299
386.986
383.205
379.101
374.855
370.657
366.68
363.056
359.877
357.183
354.975
353.22
351.866
350.85
350.107
349.578
349.209
348.958
348.791
348.682
348.612
348.569
348.544
348.53
348.712
348.864
348.995
349.112
349.217
400
400
399.996
399.981
399.927
399.433
398.831
398.01
396.849
395.233
393.072
390.326
387.016
383.235
379.13
374.881
370.68
366.697
363.07
359.887
357.19
354.979
353.223
351.867
350.85
350.107
349.578
349.209
348.958
348.791
348.682
348.612
348.569
348.544
348.529
348.711
348.863
348.995
349.112
349.217
400
400
399.996
399.981
399.927
399.425
398.813
397.975
396.791
395.146
392.954
390.177
386.842
383.043
378.93
374.683
370.49
366.523
362.914
359.751
357.074
354.883
353.144
351.805
350.801
350.068
349.546
349.184
348.938
348.774
348.667
348.598
348.556
348.532
348.518
348.703
348.857
348.991
349.109
349.215
400
400
399.997
399.982
399.928
399.376
398.708
397.796
396.504
394.708
392.319
389.316
385.748
381.738
377.461
373.117
368.901
364.98
361.475
358.458
355.95
353.932
352.358
351.167
350.289
349.659
349.218
348.916
348.715
348.583
348.498
348.445
348.413
348.395
348.386
348.614
348.797
348.95
349.083
349.2
400
399.999
399.996
399.982
399.934
399.593
399.085
398.319
397.182
395.561
393.367
390.563
387.183
383.326
379.151
374.846
370.606
366.603
362.972
359.8
357.124
354.939
353.21
351.882
350.89
350.167
349.654
349.299
349.058
348.898
348.794
348.728
348.687
348.662
348.648
348.767
348.888
349.005
349.115
349.218
400
399.999
399.996
399.98
399.932
399.624
399.163
398.468
397.439
395.971
393.978
391.413
388.286
384.67
380.691
376.516
372.329
368.301
364.578
361.263
358.413
356.042
354.13
352.634
351.495
350.651
350.04
349.61
349.312
349.112
348.979
348.893
348.839
348.805
348.785
348.873
348.966
349.061
349.154
349.243
400
399.999
399.996
399.98
399.932
399.63
399.178
398.499
397.491
396.051
394.089
391.554
388.454
384.855
380.885
376.711
372.516
368.475
364.735
361.401
358.531
356.14
354.211
352.699
351.547
350.692
350.073
349.636
349.333
349.129
348.994
348.906
348.85
348.816
348.796
348.881
348.973
349.066
349.158
349.246
400
399.999
399.996
399.981
399.932
399.629
399.176
398.494
397.483
396.038
394.07
391.53
388.424
384.823
380.854
376.682
372.491
368.455
364.72
361.389
358.523
356.135
354.208
352.697
351.546
350.691
350.073
349.636
349.334
349.129
348.994
348.906
348.851
348.817
348.796
348.881
348.973
349.066
349.158
349.246
400
399.999
399.996
399.981
399.933
399.63
399.179
398.499
397.489
396.045
394.078
391.539
388.433
384.831
380.86
376.687
372.494
368.457
364.72
361.389
358.522
356.134
354.207
352.696
351.545
350.691
350.072
349.635
349.333
349.129
348.994
348.906
348.85
348.816
348.796
348.881
348.973
349.066
349.158
349.246
400
399.999
399.996
399.981
399.933
399.63
399.177
398.495
397.484
396.037
394.066
391.522
388.414
384.811
380.84
376.669
372.479
368.444
364.71
361.382
358.516
356.13
354.204
352.694
351.544
350.69
350.071
349.634
349.333
349.129
348.993
348.906
348.85
348.816
348.796
348.881
348.973
349.066
349.158
349.245
400
399.999
399.996
399.981
399.934
399.631
399.179
398.499
397.489
396.044
394.075
391.533
388.425
384.821
380.85
376.677
372.485
368.449
364.714
361.385
358.518
356.131
354.205
352.695
351.544
350.69
350.071
349.634
349.332
349.128
348.993
348.905
348.85
348.816
348.796
348.881
348.973
349.066
349.157
349.245
400
399.999
399.996
399.981
399.934
399.631
399.18
398.5
397.491
396.046
394.076
391.533
388.425
384.821
380.85
376.677
372.486
368.45
364.716
361.386
358.52
356.132
354.206
352.695
351.544
350.69
350.071
349.634
349.332
349.128
348.993
348.905
348.85
348.816
348.796
348.881
348.973
349.066
349.157
349.245
400
399.999
399.996
399.981
399.935
399.632
399.183
398.504
397.497
396.055
394.088
391.547
388.44
384.836
380.864
376.691
372.498
368.46
364.724
361.392
358.524
356.136
354.208
352.697
351.546
350.691
350.072
349.634
349.332
349.128
348.993
348.905
348.849
348.816
348.795
348.881
348.973
349.066
349.157
349.245
400
399.999
399.996
399.982
399.935
399.633
399.184
398.508
397.502
396.062
394.097
391.558
388.452
384.849
380.877
376.702
372.509
368.47
364.732
361.399
358.53
356.14
354.211
352.699
351.547
350.692
350.072
349.635
349.333
349.128
348.993
348.905
348.849
348.815
348.795
348.88
348.972
349.066
349.157
349.245
400
399.999
399.996
399.982
399.936
399.635
399.187
398.512
397.51
396.073
394.111
391.575
388.47
384.868
380.896
376.72
372.525
368.484
364.743
361.408
358.537
356.145
354.215
352.702
351.549
350.693
350.073
349.635
349.333
349.128
348.993
348.905
348.849
348.815
348.795
348.88
348.972
349.066
349.157
349.245
400
399.999
399.996
399.982
399.936
399.636
399.189
398.517
397.517
396.083
394.125
391.591
388.488
384.887
380.915
376.739
372.542
368.499
364.756
361.418
358.545
356.152
354.22
352.705
351.551
350.694
350.074
349.636
349.333
349.128
348.993
348.905
348.849
348.815
348.795
348.88
348.972
349.066
349.157
349.245
400
399.999
399.996
399.982
399.937
399.637
399.192
398.521
397.525
396.095
394.14
391.61
388.51
384.91
380.938
376.761
372.561
368.516
364.77
361.43
358.554
356.159
354.225
352.709
351.554
350.696
350.075
349.637
349.334
349.129
348.993
348.905
348.849
348.815
348.795
348.88
348.972
349.066
349.157
349.245
400
399.999
399.996
399.982
399.937
399.638
399.194
398.526
397.533
396.107
394.156
391.629
388.532
384.934
380.962
376.783
372.582
368.534
364.786
361.443
358.564
356.167
354.231
352.713
351.557
350.698
350.077
349.638
349.334
349.129
348.993
348.905
348.849
348.815
348.795
348.88
348.972
349.066
349.157
349.245
400
399.999
399.996
399.982
399.938
399.639
399.197
398.531
397.542
396.119
394.173
391.65
388.555
384.958
380.986
376.806
372.603
368.552
364.801
361.455
358.574
356.174
354.236
352.717
351.56
350.7
350.078
349.639
349.335
349.129
348.993
348.905
348.849
348.815
348.795
348.88
348.972
349.066
349.157
349.245
400
399.999
399.996
399.982
399.938
399.639
399.197
398.531
397.541
396.118
394.171
391.648
388.553
384.956
380.984
376.804
372.601
368.55
364.799
361.454
358.573
356.173
354.236
352.717
351.559
350.7
350.078
349.638
349.335
349.129
348.993
348.905
348.849
348.815
348.795
348.88
348.972
349.066
349.157
349.245
400
399.999
399.996
399.982
399.937
399.638
399.194
398.526
397.532
396.105
394.154
391.626
388.528
384.929
380.957
376.778
372.577
368.53
364.782
361.439
358.562
356.164
354.229
352.712
351.556
350.698
350.076
349.637
349.334
349.129
348.993
348.905
348.849
348.815
348.795
348.88
348.972
349.066
349.157
349.245
400
399.999
399.996
399.982
399.937
399.637
399.191
398.521
397.523
396.092
394.137
391.605
388.504
384.903
380.931
376.753
372.554
368.509
364.765
361.425
358.55
356.156
354.222
352.707
351.552
350.695
350.075
349.636
349.333
349.128
348.993
348.905
348.849
348.815
348.795
348.88
348.972
349.066
349.157
349.245
400
399.999
399.996
399.982
399.936
399.635
399.189
398.516
397.515
396.08
394.12
391.584
388.48
384.878
380.905
376.729
372.532
368.49
364.748
361.412
358.54
356.147
354.216
352.703
351.549
350.693
350.073
349.635
349.333
349.128
348.993
348.905
348.849
348.815
348.795
348.88
348.972
349.066
349.157
349.245
400
399.999
399.996
399.982
399.936
399.634
399.186
398.511
397.507
396.069
394.105
391.566
388.46
384.857
380.884
376.708
372.513
368.473
364.734
361.4
358.53
356.14
354.211
352.699
351.547
350.691
350.072
349.635
349.332
349.128
348.993
348.905
348.849
348.815
348.795
348.88
348.972
349.066
349.157
349.245
400
399.999
399.996
399.982
399.935
399.633
399.184
398.506
397.499
396.057
394.09
391.548
388.44
384.835
380.862
376.688
372.495
368.457
364.721
361.39
358.522
356.134
354.207
352.696
351.544
350.69
350.071
349.634
349.332
349.128
348.993
348.905
348.849
348.815
348.795
348.88
348.972
349.066
349.157
349.245
400
399.999
399.996
399.981
399.935
399.632
399.182
398.503
397.494
396.049
394.08
391.536
388.426
384.821
380.848
376.674
372.482
368.446
364.711
361.382
358.516
356.129
354.203
352.693
351.543
350.689
350.07
349.634
349.332
349.128
348.993
348.905
348.849
348.815
348.795
348.881
348.973
349.066
349.157
349.245
400
399.999
399.996
399.981
399.934
399.631
399.179
398.498
397.487
396.039
394.067
391.521
388.41
384.804
380.832
376.659
372.469
368.435
364.702
361.374
358.51
356.125
354.2
352.691
351.541
350.688
350.07
349.633
349.332
349.128
348.993
348.905
348.85
348.816
348.795
348.881
348.973
349.066
349.157
349.245
400
399.999
399.996
399.981
399.934
399.63
399.178
398.497
397.485
396.037
394.065
391.519
388.408
384.803
380.83
376.658
372.467
368.433
364.7
361.372
358.508
356.124
354.199
352.69
351.541
350.687
350.07
349.633
349.332
349.128
348.993
348.905
348.85
348.816
348.796
348.881
348.973
349.066
349.157
349.245
400
399.999
399.996
399.981
399.933
399.629
399.176
398.493
397.479
396.029
394.055
391.508
388.397
384.792
380.82
376.648
372.459
368.426
364.695
361.369
358.506
356.122
354.198
352.69
351.54
350.687
350.07
349.633
349.332
349.128
348.993
348.906
348.85
348.816
348.796
348.881
348.973
349.066
349.158
349.245
400
399.999
399.996
399.981
399.933
399.63
399.177
398.496
397.484
396.037
394.067
391.524
388.415
384.811
380.84
376.666
372.475
368.439
364.705
361.376
358.511
356.126
354.2
352.691
351.542
350.688
350.07
349.634
349.332
349.129
348.993
348.906
348.85
348.816
348.796
348.881
348.973
349.066
349.158
349.246
400
399.999
399.996
399.98
399.932
399.628
399.175
398.491
397.478
396.029
394.057
391.514
388.406
384.803
380.833
376.661
372.472
368.437
364.704
361.376
358.512
356.127
354.201
352.692
351.542
350.689
350.071
349.634
349.333
349.129
348.994
348.906
348.851
348.817
348.796
348.881
348.973
349.066
349.158
349.246
400
399.999
399.996
399.98
399.932
399.629
399.177
398.495
397.485
396.042
394.076
391.539
388.436
384.836
380.866
376.692
372.498
368.459
364.721
361.389
358.521
356.133
354.205
352.695
351.544
350.69
350.071
349.635
349.333
349.129
348.994
348.906
348.85
348.816
348.796
348.881
348.973
349.066
349.158
349.246
400
399.999
399.996
399.98
399.931
399.623
399.161
398.465
397.433
395.963
393.966
391.399
388.27
384.652
380.673
376.5
372.313
368.288
364.567
361.254
358.406
356.036
354.126
352.631
351.493
350.65
350.04
349.609
349.312
349.112
348.979
348.893
348.839
348.805
348.785
348.873
348.967
349.061
349.154
349.243
400
399.999
399.996
399.982
399.934
399.593
399.085
398.32
397.184
395.565
393.373
390.572
387.194
383.341
379.169
374.866
370.627
366.624
362.993
359.819
357.14
354.953
353.222
351.892
350.897
350.173
349.658
349.301
349.06
348.899
348.795
348.728
348.687
348.662
348.648
348.767
348.888
349.005
349.115
349.218
400
399.999
399.995
399.98
399.936
399.695
399.323
398.74
397.846
396.533
394.705
392.303
389.321
385.82
381.918
377.774
373.572
369.489
365.677
362.25
359.276
356.78
354.75
353.148
351.918
350.999
350.329
349.853
349.522
349.297
349.147
349.05
348.987
348.949
348.925
348.99
349.061
349.137
349.213
349.288
400
399.999
399.994
399.978
399.933
399.709
399.365
398.828
398.009
396.813
395.15
392.958
390.217
386.962
383.283
379.315
375.221
371.17
367.319
363.792
360.673
358.006
355.796
354.019
352.63
351.573
350.788
350.22
349.819
349.54
349.352
349.227
349.145
349.094
349.061
349.103
349.153
349.21
349.27
349.331
400
399.999
399.994
399.978
399.933
399.714
399.376
398.851
398.05
396.877
395.242
393.078
390.362
387.126
383.458
379.493
375.395
371.335
367.47
363.926
360.79
358.106
355.879
354.087
352.685
351.616
350.823
350.248
349.84
349.558
349.367
349.239
349.156
349.104
349.071
349.11
349.16
349.215
349.274
349.334
400
399.999
399.994
399.978
399.934
399.714
399.376
398.85
398.047
396.871
395.231
393.062
390.34
387.101
383.431
379.466
375.369
371.313
367.452
363.912
360.779
358.098
355.874
354.084
352.683
351.615
350.822
350.248
349.84
349.558
349.367
349.239
349.157
349.104
349.071
349.111
349.16
349.215
349.274
349.334
400
399.999
399.994
399.979
399.935
399.716
399.379
398.855
398.055
396.882
395.243
393.075
390.354
387.113
383.442
379.474
375.376
371.317
367.454
363.913
360.78
358.098
355.874
354.083
352.682
351.615
350.822
350.247
349.84
349.558
349.366
349.239
349.156
349.104
349.071
349.111
349.16
349.215
349.274
349.334
400
399.999
399.994
399.979
399.935
399.716
399.379
398.854
398.053
396.877
395.236
393.064
390.341
387.098
383.425
379.459
375.362
371.305
367.444
363.905
360.774
358.093
355.87
354.081
352.68
351.613
350.821
350.247
349.84
349.558
349.366
349.239
349.156
349.104
349.071
349.11
349.16
349.215
349.274
349.334
400
399.999
399.995
399.979
399.936
399.717
399.382
398.858
398.059
396.886
395.247
393.077
390.354
387.111
383.438
379.47
375.371
371.313
367.45
363.91
360.777
358.096
355.872
354.082
352.681
351.614
350.821
350.247
349.839
349.557
349.366
349.239
349.156
349.103
349.071
349.11
349.16
349.215
349.274
349.334
400
399.999
399.995
399.979
399.936
399.718
399.383
398.86
398.062
396.889
395.251
393.081
390.358
387.114
383.441
379.473
375.374
371.315
367.453
363.912
360.779
358.097
355.873
354.083
352.682
351.614
350.821
350.247
349.84
349.557
349.366
349.239
349.156
349.103
349.071
349.11
349.159
349.215
349.274
349.334
400
399.999
399.995
399.979
399.937
399.719
399.385
398.864
398.068
396.899
395.263
393.096
390.374
387.132
383.458
379.489
375.388
371.328
367.463
363.921
360.786
358.102
355.877
354.086
352.684
351.616
350.822
350.247
349.84
349.557
349.366
349.239
349.156
349.103
349.07
349.11
349.159
349.215
349.274
349.334
400
399.999
399.995
399.98
399.937
399.72
399.387
398.868
398.074
396.906
395.273
393.107
390.387
387.146
383.472
379.503
375.401
371.339
367.473
363.929
360.792
358.108
355.881
354.089
352.686
351.617
350.823
350.248
349.84
349.558
349.366
349.238
349.156
349.103
349.07
349.11
349.159
349.215
349.274
349.334
400
399.999
399.995
399.98
399.938
399.721
399.389
398.872
398.08
396.916
395.286
393.124
390.406
387.166
383.493
379.523
375.42
371.356
367.487
363.941
360.802
358.115
355.886
354.093
352.689
351.619
350.825
350.249
349.841
349.558
349.366
349.238
349.156
349.103
349.07
349.11
349.159
349.215
349.274
349.334
400
399.999
399.995
399.98
399.938
399.722
399.391
398.876
398.087
396.926
395.299
393.14
390.425
387.186
383.514
379.543
375.439
371.373
367.502
363.953
360.812
358.123
355.892
354.097
352.692
351.621
350.826
350.25
349.841
349.558
349.366
349.239
349.156
349.103
349.07
349.11
349.159
349.215
349.274
349.334
400
399.999
399.995
399.98
399.938
399.723
399.394
398.88
398.094
396.936
395.314
393.158
390.446
387.21
383.538
379.567
375.461
371.393
367.519
363.967
360.823
358.132
355.899
354.102
352.695
351.624
350.828
350.251
349.842
349.559
349.367
349.239
349.156
349.103
349.07
349.11
349.159
349.215
349.274
349.334
400
399.999
399.995
399.98
399.939
399.724
399.396
398.884
398.101
396.947
395.328
393.177
390.468
387.233
383.562
379.591
375.484
371.413
367.537
363.982
360.835
358.141
355.907
354.107
352.699
351.627
350.83
350.252
349.843
349.559
349.367
349.239
349.156
349.103
349.07
349.11
349.159
349.215
349.274
349.334
400
399.999
399.995
399.98
399.939
399.725
399.398
398.889
398.108
396.958
395.343
393.195
390.49
387.258
383.588
379.616
375.507
371.434
367.555
363.997
360.847
358.151
355.914
354.113
352.703
351.629
350.832
350.253
349.844
349.56
349.367
349.239
349.156
349.103
349.07
349.11
349.159
349.215
349.274
349.334
400
399.999
399.995
399.98
399.939
399.725
399.398
398.888
398.108
396.957
395.342
393.194
390.488
387.255
383.585
379.613
375.504
371.432
367.553
363.995
360.846
358.149
355.913
354.112
352.703
351.629
350.831
350.253
349.844
349.56
349.367
349.239
349.156
349.103
349.07
349.11
349.159
349.215
349.274
349.334
400
399.999
399.995
399.98
399.939
399.724
399.396
398.884
398.1
396.946
395.326
393.173
390.464
387.229
383.557
379.585
375.478
371.408
367.532
363.978
360.832
358.139
355.904
354.106
352.698
351.626
350.829
350.252
349.843
349.559
349.367
349.239
349.156
349.103
349.07
349.11
349.159
349.215
349.274
349.334
400
399.999
399.995
399.98
399.938
399.723
399.393
398.879
398.093
396.934
395.31
393.153
390.44
387.203
383.53
379.559
375.453
371.385
367.512
363.961
360.818
358.128
355.896
354.1
352.694
351.622
350.827
350.25
349.842
349.558
349.366
349.239
349.156
349.103
349.07
349.11
349.159
349.215
349.274
349.334
400
399.999
399.995
399.98
399.938
399.722
399.391
398.875
398.085
396.923
395.295
393.134
390.417
387.177
383.504
379.533
375.429
371.363
367.493
363.945
360.805
358.118
355.888
354.094
352.689
351.62
350.825
350.249
349.841
349.558
349.366
349.238
349.155
349.103
349.07
349.11
349.159
349.215
349.274
349.334
400
399.999
399.995
399.98
399.937
399.721
399.389
398.871
398.078
396.912
395.281
393.116
390.396
387.155
383.48
379.51
375.407
371.344
367.477
363.931
360.794
358.109
355.882
354.089
352.686
351.617
350.823
350.248
349.84
349.557
349.366
349.238
349.155
349.103
349.07
349.11
349.159
349.215
349.274
349.334
400
399.999
399.995
399.98
399.937
399.72
399.386
398.866
398.071
396.901
395.266
393.098
390.375
387.132
383.457
379.487
375.386
371.325
367.461
363.918
360.783
358.1
355.875
354.084
352.683
351.615
350.822
350.247
349.839
349.557
349.366
349.238
349.155
349.103
349.07
349.11
349.159
349.215
349.274
349.334
400
399.999
399.995
399.979
399.937
399.719
399.384
398.863
398.065
396.893
395.255
393.085
390.361
387.116
383.441
379.471
375.371
371.312
367.449
363.908
360.775
358.094
355.87
354.081
352.68
351.613
350.82
350.246
349.839
349.557
349.366
349.238
349.155
349.103
349.07
349.11
349.159
349.215
349.274
349.334
400
399.999
399.995
399.979
399.936
399.718
399.382
398.858
398.058
396.883
395.242
393.069
390.342
387.097
383.422
379.453
375.355
371.298
367.437
363.898
360.767
358.088
355.866
354.077
352.678
351.611
350.819
350.245
349.839
349.557
349.365
349.238
349.156
349.103
349.07
349.11
349.159
349.215
349.274
349.334
400
399.999
399.995
399.979
399.936
399.717
399.38
398.856
398.055
396.879
395.237
393.064
390.338
387.092
383.417
379.449
375.351
371.294
367.433
363.895
360.765
358.086
355.864
354.076
352.677
351.611
350.819
350.245
349.838
349.557
349.366
349.238
349.156
349.103
349.071
349.11
349.16
349.215
349.274
349.334
400
399.999
399.994
399.979
399.935
399.715
399.378
398.851
398.048
396.869
395.225
393.05
390.323
387.078
383.403
379.436
375.34
371.285
367.426
363.89
360.761
358.083
355.862
354.075
352.676
351.61
350.819
350.245
349.838
349.557
349.366
349.239
349.156
349.103
349.071
349.11
349.16
349.215
349.274
349.334
400
399.999
399.994
399.979
399.934
399.715
399.378
398.852
398.05
396.873
395.232
393.06
390.336
387.092
383.419
379.452
375.354
371.297
367.436
363.897
360.766
358.087
355.865
354.077
352.677
351.611
350.819
350.245
349.839
349.557
349.366
349.239
349.156
349.104
349.071
349.11
349.16
349.215
349.274
349.334
400
399.999
399.994
399.978
399.934
399.713
399.374
398.846
398.041
396.862
395.219
393.045
390.321
387.079
383.408
379.442
375.347
371.292
367.433
363.896
360.766
358.088
355.866
354.078
352.678
351.612
350.82
350.246
349.839
349.558
349.366
349.239
349.156
349.104
349.071
349.111
349.16
349.215
349.274
349.334
400
399.999
399.994
399.978
399.933
399.713
399.374
398.847
398.044
396.868
395.229
393.062
390.343
387.105
383.436
379.471
375.374
371.315
367.453
363.911
360.778
358.096
355.872
354.082
352.681
351.613
350.821
350.246
349.84
349.558
349.366
349.239
349.156
349.104
349.071
349.11
349.16
349.215
349.274
349.334
400
399.999
399.994
399.978
399.932
399.709
399.363
398.825
398.004
396.805
395.139
392.943
390.199
386.943
383.263
379.295
375.202
371.154
367.305
363.78
360.663
357.999
355.791
354.015
352.627
351.571
350.787
350.22
349.818
349.54
349.352
349.227
349.145
349.094
349.062
349.103
349.153
349.21
349.27
349.331
400
399.999
399.995
399.98
399.936
399.696
399.323
398.741
397.848
396.536
394.71
392.309
389.331
385.832
381.932
377.791
373.59
369.507
365.695
362.267
359.292
356.794
354.762
353.158
351.926
351.005
350.334
349.856
349.525
349.299
349.148
349.05
348.988
348.949
348.925
348.99
349.061
349.136
349.213
349.288
400
399.998
399.993
399.976
399.933
399.73
399.419
398.935
398.19
397.085
395.522
393.429
390.776
387.591
383.957
380.006
375.904
371.822
367.92
364.33
361.142
358.405
356.129
354.292
352.851
351.752
350.934
350.34
349.919
349.627
349.428
349.297
349.211
349.156
349.122
349.161
349.208
349.26
349.314
349.37
400
399.998
399.992
399.974
399.928
399.735
399.44
398.982
398.283
397.256
395.812
393.881
391.428
388.461
385.042
381.279
377.314
373.307
369.415
365.773
362.483
359.611
357.18
355.185
353.593
352.356
351.421
350.73
350.232
349.88
349.637
349.473
349.364
349.294
349.249
349.267
349.297
349.333
349.375
349.419
400
399.998
399.992
399.974
399.928
399.738
399.448
398.999
398.313
397.303
395.881
393.974
391.542
388.593
385.186
381.427
377.461
373.448
369.546
365.892
362.589
359.703
357.258
355.25
353.646
352.399
351.455
350.757
350.253
349.897
349.651
349.485
349.374
349.302
349.257
349.274
349.302
349.338
349.378
349.422
400
399.998
399.992
399.975
399.929
399.739
399.45
399.001
398.315
397.304
395.879
393.967
391.531
388.578
385.167
381.407
377.441
373.429
369.53
365.879
362.579
359.694
357.252
355.246
353.643
352.397
351.454
350.756
350.253
349.897
349.651
349.485
349.374
349.303