/*--------------------------------*- C++ -*----------------------------------*\
| =========                 |                                                 |
| \\      /  F ield         | OpenFOAM: The Open Source CFD Toolbox           |
|  \\    /   O peration     | Version:  5.0                                   |
|   \\  /    A nd           | Web:      www.OpenFOAM.org                      |
|    \\/     M anipulation  |                                                 |
\*---------------------------------------------------------------------------*/
FoamFile
{
    version     2.0;
    format      ascii;
    class       volVectorField;
    location    "50/porous";
    object      U;
}
// * * * * * * * * * * * * * * * * * * * * * * * * * * * * * * * * * * * * * //

dimensions      [0 1 -1 0 0 0 0];

internalField   nonuniform List<vector> 
36000
(
(0.00555059 7.02657e-05 0.000289033)
(0.00341004 4.43844e-05 6.70932e-05)
(0.00220816 3.71694e-05 1.36682e-05)
(0.00182007 3.0945e-05 1.52596e-06)
(0.0016087 2.55351e-05 7.85084e-08)
(0.00148109 2.10817e-05 -1.90375e-07)
(0.00139793 1.72575e-05 -2.51245e-07)
(0.00134207 1.38656e-05 -2.60472e-07)
(0.00130441 1.08451e-05 -2.34033e-07)
(0.00127901 8.21994e-06 -1.87384e-07)
(0.001262 6.02551e-06 -1.37404e-07)
(0.00125076 4.27019e-06 -9.41402e-08)
(0.00124349 2.92666e-06 -6.12339e-08)
(0.00123893 1.94085e-06 -3.82914e-08)
(0.00123617 1.24602e-06 -2.32248e-08)
(0.00123457 7.7441e-07 -1.37225e-08)
(0.00123369 4.65697e-07 -7.88665e-09)
(0.00123323 2.70674e-07 -4.38742e-09)
(0.00123301 1.51638e-07 -2.33258e-09)
(0.00123293 8.14307e-08 -1.14553e-09)
(0.0012329 4.14776e-08 -4.77541e-10)
(0.00123291 1.96452e-08 -1.33223e-10)
(0.00123292 8.21406e-09 3.34735e-11)
(0.00123294 2.55069e-09 1.04694e-10)
(0.00123295 -2.56819e-11 1.20404e-10)
(0.00123297 -1.01915e-09 1.14936e-10)
(0.00123298 -1.26371e-09 1.00362e-10)
(0.00123298 -1.16271e-09 8.28803e-11)
(0.00123299 -9.45873e-10 6.50567e-11)
(0.00123299 -6.89088e-10 4.73304e-11)
(0.00123299 -4.51868e-10 3.52218e-11)
(0.00123299 -2.22719e-10 1.93015e-11)
(0.00123299 7.89871e-12 2.06497e-12)
(0.00123299 2.11962e-10 -8.63109e-12)
(0.00123299 7.26581e-10 -4.20751e-11)
(0.00123299 7.71406e-10 -1.55312e-11)
(0.00123299 4.27154e-09 -1.99695e-10)
(0.00123295 9.03511e-10 1.60088e-10)
(0.00123301 3.77799e-08 -4.76444e-09)
(0.00123277 3.59177e-08 -1.71612e-09)
(0.00562437 8.38185e-05 0.000295868)
(0.00352657 5.57788e-05 6.94207e-05)
(0.00239089 4.93038e-05 1.5914e-05)
(0.00203716 4.09594e-05 3.32009e-06)
(0.0018557 3.38512e-05 1.48593e-06)
(0.00175258 2.74985e-05 9.94725e-07)
(0.00168947 2.15625e-05 7.65522e-07)
(0.00164989 1.60601e-05 6.11015e-07)
(0.00162515 1.11766e-05 5.02561e-07)
(0.0016097 7.1359e-06 4.21931e-07)
(0.00160006 4.06194e-06 3.53322e-07)
(0.00159409 1.93271e-06 2.89201e-07)
(0.00159044 6.06745e-07 2.28591e-07)
(0.00158828 -1.15602e-07 1.73653e-07)
(0.00158706 -4.34823e-07 1.26656e-07)
(0.00158642 -5.16059e-07 8.88348e-08)
(0.00158611 -4.76953e-07 6.01044e-08)
(0.001586 -3.91203e-07 3.93989e-08)
(0.00158597 -2.98939e-07 2.51383e-08)
(0.00158599 -2.18255e-07 1.56748e-08)
(0.00158603 -1.54668e-07 9.59341e-09)
(0.00158606 -1.07559e-07 5.80461e-09)
(0.00158609 -7.4038e-08 3.4912e-09)
(0.00158612 -5.07616e-08 2.0997e-09)
(0.00158614 -3.4811e-08 1.26756e-09)
(0.00158615 -2.39255e-08 7.78365e-10)
(0.00158616 -1.6487e-08 4.83545e-10)
(0.00158617 -1.13646e-08 3.10403e-10)
(0.00158617 -7.80136e-09 2.01884e-10)
(0.00158618 -5.2665e-09 1.33615e-10)
(0.00158618 -3.42297e-09 8.85607e-11)
(0.00158618 -2.00742e-09 5.15915e-11)
(0.00158618 -7.92085e-10 2.59584e-11)
(0.00158618 3.11759e-10 2.00555e-12)
(0.00158618 2.0381e-09 -2.59946e-11)
(0.00158618 3.44531e-09 -6.24089e-11)
(0.00158617 1.07596e-08 -4.24223e-11)
(0.00158615 9.8541e-09 -5.11325e-10)
(0.00158619 6.58083e-08 -5.09791e-10)
(0.001586 5.54344e-08 1.3472e-09)
(0.00561671 4.31694e-05 0.00029481)
(0.00351567 3.86268e-05 6.82824e-05)
(0.00239616 3.85145e-05 1.52876e-05)
(0.00204969 3.37381e-05 2.87734e-06)
(0.00187516 2.83657e-05 1.12178e-06)
(0.00177753 2.28772e-05 6.65297e-07)
(0.00171845 1.73962e-05 4.32361e-07)
(0.0016816 1.22474e-05 2.59167e-07)
(0.00165845 7.76092e-06 1.34983e-07)
(0.00164369 4.19177e-06 5.39077e-08)
(0.00163407 1.63605e-06 5.1475e-09)
(0.00162765 2.27561e-08 -2.08299e-08)
(0.00162331 -8.335e-07 -3.16661e-08)
(0.00162038 -1.16032e-06 -3.32416e-08)
(0.00161843 -1.16777e-06 -2.99191e-08)
(0.00161716 -1.01646e-06 -2.43981e-08)
(0.00161635 -8.11735e-07 -1.83409e-08)
(0.00161586 -6.12396e-07 -1.30054e-08)
(0.00161556 -4.44366e-07 -8.83906e-09)
(0.00161539 -3.14074e-07 -5.79791e-09)
(0.0016153 -2.18352e-07 -3.68929e-09)
(0.00161525 -1.50479e-07 -2.28785e-09)
(0.00161523 -1.03409e-07 -1.39237e-09)
(0.00161522 -7.11527e-08 -8.33022e-10)
(0.00161522 -4.91377e-08 -4.8889e-10)
(0.00161522 -3.40862e-08 -2.82714e-10)
(0.00161522 -2.37216e-08 -1.6209e-10)
(0.00161522 -1.65204e-08 -8.96933e-11)
(0.00161523 -1.14455e-08 -4.7793e-11)
(0.00161523 -7.79768e-09 -2.13473e-11)
(0.00161523 -5.09838e-09 -1.14037e-11)
(0.00161523 -3.00012e-09 -7.53893e-12)
(0.00161523 -1.16539e-09 -1.30815e-11)
(0.00161523 5.6008e-10 -1.542e-11)
(0.00161523 2.97938e-09 -1.9142e-11)
(0.00161522 5.51107e-09 -2.31497e-11)
(0.00161522 1.299e-08 5.97366e-11)
(0.00161521 1.67222e-08 -3.25102e-10)
(0.00161524 5.17507e-08 6.89098e-10)
(0.00161506 4.08828e-08 1.24949e-09)
(0.00560909 3.71756e-05 0.000295458)
(0.00349712 4.15432e-05 6.88904e-05)
(0.00238032 4.05167e-05 1.5707e-05)
(0.0020361 3.55999e-05 3.19183e-06)
(0.0018644 3.01429e-05 1.36238e-06)
(0.00176928 2.47476e-05 8.63168e-07)
(0.00171229 1.95231e-05 6.06449e-07)
(0.00167712 1.46742e-05 4.23108e-07)
(0.00165534 1.04017e-05 2.9534e-07)
(0.00164168 6.86967e-06 2.11054e-07)
(0.00163295 4.15141e-06 1.55347e-07)
(0.00162726 2.21513e-06 1.16967e-07)
(0.0016235 9.47862e-07 8.87644e-08)
(0.00162102 1.96502e-07 6.68748e-08)
(0.0016194 -1.93716e-07 4.94819e-08)
(0.00161836 -3.54359e-07 3.57514e-08)
(0.00161772 -3.84109e-07 2.51495e-08)
(0.00161733 -3.49289e-07 1.7216e-08)
(0.00161711 -2.9002e-07 1.14845e-08)
(0.00161699 -2.27912e-07 7.48792e-09)
(0.00161692 -1.72888e-07 4.78233e-09)
(0.00161689 -1.28168e-07 3.0054e-09)
(0.00161688 -9.3625e-08 1.86659e-09)
(0.00161687 -6.77768e-08 1.1518e-09)
(0.00161687 -4.8796e-08 7.08313e-10)
(0.00161687 -3.50052e-08 4.39211e-10)
(0.00161687 -2.5031e-08 2.76193e-10)
(0.00161688 -1.78028e-08 1.76942e-10)
(0.00161688 -1.25359e-08 1.16502e-10)
(0.00161688 -8.64006e-09 7.93711e-11)
(0.00161688 -5.67968e-09 5.30744e-11)
(0.00161688 -3.33012e-09 3.35149e-11)
(0.00161688 -1.24641e-09 1.6847e-11)
(0.00161688 7.25109e-10 -3.1343e-14)
(0.00161688 3.34752e-09 -9.91299e-12)
(0.00161688 6.00938e-09 -2.98357e-11)
(0.00161688 1.26716e-08 8.0949e-11)
(0.00161687 1.59448e-08 -3.99584e-10)
(0.0016169 3.78831e-08 9.33702e-10)
(0.0016167 3.45071e-08 1.59367e-09)
(0.00560513 2.48102e-05 0.000295262)
(0.00348761 3.17036e-05 6.85338e-05)
(0.0023724 3.24917e-05 1.53204e-05)
(0.0020293 2.97306e-05 2.87114e-06)
(0.00185877 2.58428e-05 1.09358e-06)
(0.00176468 2.15636e-05 6.3154e-07)
(0.00170862 1.71728e-05 3.98495e-07)
(0.00167434 1.2964e-05 2.3078e-07)
(0.00165341 9.18866e-06 1.15317e-07)
(0.00164051 6.03528e-06 4.36683e-08)
(0.00163242 3.59392e-06 3.19103e-09)
(0.0016272 1.85061e-06 -1.68116e-08)
(0.00162374 7.11754e-07 -2.43169e-08)
(0.00162142 4.27664e-08 -2.48926e-08)
(0.00161985 -2.95811e-07 -2.2113e-08)
(0.00161881 -4.24363e-07 -1.78132e-08)
(0.00161811 -4.33972e-07 -1.32833e-08)
(0.00161766 -3.86121e-07 -9.45567e-09)
(0.00161737 -3.17999e-07 -6.48071e-09)
(0.0016172 -2.4957e-07 -4.29902e-09)
(0.00161709 -1.89807e-07 -2.76845e-09)
(0.00161703 -1.41411e-07 -1.74254e-09)
(0.00161699 -1.03962e-07 -1.06987e-09)
(0.00161697 -7.57892e-08 -6.47571e-10)
(0.00161696 -5.49658e-08 -3.84723e-10)
(0.00161696 -3.97066e-08 -2.22862e-10)
(0.00161696 -2.85752e-08 -1.23919e-10)
(0.00161695 -2.04423e-08 -6.84718e-11)
(0.00161695 -1.44707e-08 -3.59701e-11)
(0.00161695 -1.00284e-08 -1.52913e-11)
(0.00161695 -6.63347e-09 -7.3911e-12)
(0.00161695 -3.93553e-09 -5.03836e-12)
(0.00161695 -1.57065e-09 -6.29596e-12)
(0.00161695 6.5122e-10 -1.56866e-11)
(0.00161695 3.36328e-09 -1.3617e-11)
(0.00161695 6.17796e-09 -3.46338e-11)
(0.00161695 1.16849e-08 1.00843e-10)
(0.00161695 1.52139e-08 -3.89468e-10)
(0.00161698 2.74018e-08 1.01393e-09)
(0.00161676 2.54576e-08 1.66091e-09)
(0.00560305 2.05658e-05 0.000295419)
(0.00348129 2.98755e-05 6.87966e-05)
(0.00236474 3.16419e-05 1.5571e-05)
(0.00202128 2.96953e-05 3.10478e-06)
(0.00185107 2.63259e-05 1.30294e-06)
(0.00175763 2.24139e-05 8.18354e-07)
(0.00170237 1.83377e-05 5.66242e-07)
(0.00166898 1.43887e-05 3.83146e-07)
(0.00164895 1.07872e-05 2.54591e-07)
(0.00163693 7.69215e-06 1.70317e-07)
(0.00162964 5.18769e-06 1.1641e-07)
(0.00162512 3.28061e-06 8.17256e-08)
(0.00162224 1.91525e-06 5.86351e-08)
(0.00162038 9.98212e-07 4.2512e-08)
(0.00161915 4.2358e-07 3.07616e-08)
(0.00161834 9.17825e-08 2.20057e-08)
(0.00161782 -7.9597e-08 1.54705e-08)
(0.00161749 -1.52374e-07 1.06582e-08)
(0.00161727 -1.69396e-07 7.18593e-09)
(0.00161714 -1.58305e-07 4.75171e-09)
(0.00161707 -1.35585e-07 3.08042e-09)
(0.00161702 -1.10238e-07 1.96453e-09)
(0.00161699 -8.66596e-08 1.23858e-09)
(0.00161698 -6.65598e-08 7.70811e-10)
(0.00161697 -5.02879e-08 4.7964e-10)
(0.00161696 -3.7515e-08 3.01402e-10)
(0.00161696 -2.76815e-08 1.92301e-10)
(0.00161696 -2.01871e-08 1.25567e-10)
(0.00161696 -1.45041e-08 8.26884e-11)
(0.00161696 -1.01627e-08 6.05733e-11)
(0.00161696 -6.77898e-09 4.20851e-11)
(0.00161696 -4.04327e-09 2.66247e-11)
(0.00161696 -1.64254e-09 1.2201e-11)
(0.00161696 5.98161e-10 -1.83565e-12)
(0.00161696 3.18825e-09 -6.3459e-12)
(0.00161696 5.82353e-09 -3.29268e-11)
(0.00161696 1.0196e-08 1.05636e-10)
(0.00161695 1.32048e-08 -4.03917e-10)
(0.00161698 2.00632e-08 1.02491e-09)
(0.00161676 2.01966e-08 1.79688e-09)
(0.00560166 1.55314e-05 0.000295378)
(0.003477 2.38531e-05 6.87006e-05)
(0.00235962 2.5804e-05 1.54183e-05)
(0.00201628 2.46788e-05 2.9465e-06)
(0.00184651 2.21932e-05 1.15186e-06)
(0.00175364 1.9092e-05 6.76995e-07)
(0.00169899 1.57442e-05 4.34782e-07)
(0.00166624 1.24301e-05 2.61351e-07)
(0.00164683 9.36421e-06 1.4258e-07)
(0.00163539 6.70179e-06 6.87097e-08)
(0.0016286 4.52912e-06 2.61831e-08)
(0.00162449 2.86274e-06 3.78638e-09)
(0.00162192 1.66236e-06 -6.54874e-09)
(0.00162025 8.5215e-07 -1.01478e-08)
(0.00161915 3.4287e-07 -1.02846e-08)
(0.00161841 4.88813e-08 -8.88498e-09)
(0.00161791 -1.01802e-07 -7.03741e-09)
(0.00161757 -1.63927e-07 -5.21569e-09)
(0.00161735 -1.75851e-07 -3.64414e-09)
(0.00161721 -1.62472e-07 -2.44335e-09)
(0.00161711 -1.38746e-07 -1.59009e-09)
(0.00161706 -1.12908e-07 -1.00501e-09)
(0.00161702 -8.89963e-08 -6.20235e-10)
(0.001617 -6.85996e-08 -3.70673e-10)
(0.00161698 -5.20249e-08 -2.18134e-10)
(0.00161697 -3.89571e-08 -1.19358e-10)
(0.00161697 -2.88521e-08 -6.38515e-11)
(0.00161696 -2.11175e-08 -2.70439e-11)
(0.00161696 -1.52215e-08 -9.93981e-12)
(0.00161696 -1.06983e-08 3.86635e-12)
(0.00161696 -7.17884e-09 4.66212e-12)
(0.00161696 -4.34174e-09 1.9095e-12)
(0.00161696 -1.8832e-09 -3.44947e-12)
(0.00161696 3.64257e-10 -1.37691e-11)
(0.00161696 2.80748e-09 -1.16834e-11)
(0.00161696 5.25524e-09 -4.05517e-11)
(0.00161696 8.68509e-09 1.06581e-10)
(0.00161696 1.12333e-08 -4.02566e-10)
(0.00161698 1.48445e-08 1.02452e-09)
(0.00161675 1.52145e-08 1.85471e-09)
(0.00560098 1.2795e-05 0.000295422)
(0.00347447 2.08529e-05 6.87915e-05)
(0.00235579 2.33254e-05 1.55194e-05)
(0.00201191 2.29043e-05 3.05592e-06)
(0.001842 2.10424e-05 1.26287e-06)
(0.00174927 1.84527e-05 7.84509e-07)
(0.00169494 1.55318e-05 5.36265e-07)
(0.00166264 1.25637e-05 3.5552e-07)
(0.00164375 9.75787e-06 2.28664e-07)
(0.00163286 7.26317e-06 1.46051e-07)
(0.00162659 5.168e-06 9.41662e-08)
(0.00162295 3.502e-06 6.19985e-08)
(0.00162079 2.24607e-06 4.18206e-08)
(0.00161945 1.34809e-06 2.87663e-08)
(0.0016186 7.39736e-07 1.99914e-08)
(0.00161805 3.50617e-07 1.39025e-08)
(0.00161768 1.17655e-07 9.5942e-09)
(0.00161744 -1.04005e-08 6.53555e-09)
(0.00161727 -7.20526e-08 4.38453e-09)
(0.00161717 -9.43554e-08 2.89274e-09)
(0.00161709 -9.51862e-08 1.87956e-09)
(0.00161705 -8.56626e-08 1.20162e-09)
(0.00161702 -7.22675e-08 7.57631e-10)
(0.001617 -5.84886e-08 4.77137e-10)
(0.00161699 -4.59843e-08 2.99672e-10)
(0.00161698 -3.53781e-08 1.89548e-10)
(0.00161697 -2.67426e-08 1.21854e-10)
(0.00161697 -1.98817e-08 8.30728e-11)
(0.00161696 -1.44987e-08 5.94067e-11)
(0.00161696 -1.0283e-08 3.98957e-11)
(0.00161696 -6.95332e-09 3.00245e-11)
(0.00161696 -4.24079e-09 1.68197e-11)
(0.00161696 -1.9028e-09 8.17995e-12)
(0.00161696 2.22508e-10 -6.48242e-12)
(0.00161696 2.4165e-09 -5.03043e-12)
(0.00161696 4.58157e-09 -3.4345e-11)
(0.00161696 7.23116e-09 1.10322e-10)
(0.00161696 9.29624e-09 -4.00689e-10)
(0.00161698 1.11532e-08 1.02099e-09)
(0.00161675 1.18428e-08 1.91733e-09)
(0.00560047 1.00793e-05 0.000295412)
(0.00347251 1.67961e-05 6.87663e-05)
(0.00235285 1.90182e-05 1.54659e-05)
(0.00200869 1.8852e-05 2.9901e-06)
(0.00183881 1.74477e-05 1.19228e-06)
(0.00174629 1.53859e-05 7.12427e-07)
(0.00169229 1.3011e-05 4.65263e-07)
(0.00166038 1.05681e-05 2.87516e-07)
(0.00164191 8.23916e-06 1.65172e-07)
(0.00163142 6.15448e-06 8.8282e-08)
(0.00162553 4.39306e-06 4.30463e-08)
(0.00162221 2.98443e-06 1.81026e-08)
(0.00162029 1.91669e-06 5.30849e-09)
(0.00161915 1.14927e-06 -6.18283e-10)
(0.00161843 6.2689e-07 -2.87684e-09)
(0.00161797 2.91432e-07 -3.31973e-09)
(0.00161765 9.00773e-08 -2.96641e-09)
(0.00161744 -2.05765e-08 -2.34946e-09)
(0.00161729 -7.34675e-08 -1.7265e-09)
(0.00161719 -9.19325e-08 -1.19487e-09)
(0.00161711 -9.15374e-08 -7.95234e-10)
(0.00161707 -8.20412e-08 -5.06043e-10)
(0.00161703 -6.91711e-08 -3.116e-10)
(0.00161701 -5.60421e-08 -1.83658e-10)
(0.00161699 -4.41404e-08 -1.04712e-10)
(0.00161698 -3.40328e-08 -5.31401e-11)
(0.00161698 -2.57767e-08 -2.37469e-11)
(0.00161697 -1.9202e-08 -4.04759e-12)
(0.00161697 -1.40315e-08 8.32692e-12)
(0.00161696 -9.98523e-09 1.27131e-11)
(0.00161696 -6.77828e-09 9.42677e-12)
(0.00161696 -4.17973e-09 6.59983e-12)
(0.00161696 -1.97087e-09 -2.54011e-13)
(0.00161696 9.77138e-12 -1.05129e-11)
(0.00161696 1.97241e-09 -1.13618e-11)
(0.00161696 3.8452e-09 -4.23126e-11)
(0.00161696 5.89323e-09 1.04752e-10)
(0.00161696 7.52206e-09 -4.02132e-10)
(0.00161698 8.394e-09 1.01826e-09)
(0.00161675 8.97541e-09 1.94908e-09)
(0.00560021 8.13791e-06 0.000295424)
(0.00347134 1.39195e-05 6.87976e-05)
(0.0023508 1.61277e-05 1.55031e-05)
(0.00200619 1.6304e-05 3.0344e-06)
(0.0018361 1.53536e-05 1.24174e-06)
(0.00174357 1.37545e-05 7.63919e-07)
(0.0016897 1.18157e-05 5.16478e-07)
(0.00165802 9.76053e-06 3.36685e-07)
(0.00163984 7.75664e-06 2.10974e-07)
(0.00162969 5.92595e-06 1.29746e-07)
(0.00162413 4.34624e-06 7.95195e-08)
(0.00162112 3.05321e-06 4.92345e-08)
(0.00161948 2.04673e-06 3.10676e-08)
(0.00161856 1.30063e-06 2.00238e-08)
(0.00161802 7.73802e-07 1.313e-08)
(0.00161769 4.1993e-07 8.70246e-09)
(0.00161748 1.948e-07 5.78461e-09)
(0.00161733 6.04375e-08 3.82988e-09)
(0.00161723 -1.32423e-08 2.51275e-09)
(0.00161715 -4.85142e-08 1.63052e-09)
(0.0016171 -6.09469e-08 1.04754e-09)
(0.00161706 -6.08479e-08 6.60553e-10)
(0.00161703 -5.46488e-08 4.1753e-10)
(0.00161701 -4.61451e-08 2.60713e-10)
(0.001617 -3.74109e-08 1.64345e-10)
(0.00161699 -2.94489e-08 1.0643e-10)
(0.00161698 -2.26489e-08 6.98251e-11)
(0.00161697 -1.70635e-08 5.17417e-11)
(0.00161697 -1.25741e-08 3.6408e-11)
(0.00161697 -9.00619e-09 2.97707e-11)
(0.00161696 -6.14605e-09 2.17638e-11)
(0.00161696 -3.82219e-09 1.07878e-11)
(0.00161696 -1.84789e-09 4.90372e-12)
(0.00161696 -1.01564e-10 -1.1107e-11)
(0.00161696 1.57385e-09 -1.03812e-11)
(0.00161696 3.15036e-09 -3.74005e-11)
(0.00161696 4.71926e-09 1.07443e-10)
(0.00161696 5.98337e-09 -4.01698e-10)
(0.00161698 6.34689e-09 1.0118e-09)
(0.00161674 6.8694e-09 1.98338e-09)
(0.0056 6.3029e-06 0.000295421)
(0.00347041 1.08711e-05 6.87914e-05)
(0.00234919 1.26927e-05 1.54857e-05)
(0.00200426 1.2897e-05 3.01009e-06)
(0.00183406 1.21939e-05 1.2132e-06)
(0.00174156 1.09558e-05 7.32506e-07)
(0.00168783 9.43396e-06 4.83739e-07)
(0.00165636 7.80945e-06 3.04045e-07)
(0.00163844 6.21804e-06 1.79662e-07)
(0.00162854 4.75881e-06 1.00772e-07)
(0.00162324 3.49552e-06 5.36232e-08)
(0.00162045 2.45831e-06 2.68818e-08)
(0.001619 1.64857e-06 1.24206e-08)
(0.00161824 1.04666e-06 4.99335e-09)
(0.00161782 6.20571e-07 1.41582e-09)
(0.00161757 3.33816e-07 -1.36793e-10)
(0.0016174 1.51185e-07 -6.79452e-10)
(0.00161729 4.22482e-08 -7.54592e-10)
(0.00161721 -1.72555e-08 -6.47625e-10)
(0.00161715 -4.53873e-08 -4.93738e-10)
(0.0016171 -5.4834e-08 -3.44317e-10)
(0.00161707 -5.40216e-08 -2.29589e-10)
(0.00161704 -4.82528e-08 -1.43998e-10)
(0.00161702 -4.06505e-08 -8.75101e-11)
(0.001617 -3.29269e-08 -4.87339e-11)
(0.00161699 -2.59171e-08 -2.29376e-11)
(0.00161698 -1.99412e-08 -5.80756e-12)
(0.00161698 -1.50304e-08 2.91362e-12)
(0.00161697 -1.1086e-08 1.11209e-11)
(0.00161697 -7.94866e-09 1.22536e-11)
(0.00161697 -5.43941e-09 1.04466e-11)
(0.00161696 -3.40358e-09 5.54177e-12)
(0.00161696 -1.69289e-09 -1.30635e-12)
(0.00161696 -1.92628e-10 -1.21405e-11)
(0.00161696 1.19628e-09 -1.267e-11)
(0.00161696 2.48447e-09 -4.09875e-11)
(0.00161696 3.66487e-09 1.06284e-10)
(0.00161696 4.61971e-09 -4.03136e-10)
(0.00161699 4.72259e-09 1.01012e-09)
(0.00161674 5.0967e-09 2.00014e-09)
(0.00559988 4.76529e-06 0.000295424)
(0.00346984 8.31054e-06 6.8802e-05)
(0.00234809 9.8411e-06 1.54987e-05)
(0.00200285 1.01253e-05 3.02655e-06)
(0.00183248 9.69008e-06 1.23289e-06)
(0.00173993 8.80693e-06 7.54151e-07)
(0.00168624 7.67093e-06 5.06206e-07)
(0.00165488 6.42566e-06 3.26303e-07)
(0.00163713 5.18161e-06 2.00823e-07)
(0.00162742 4.02171e-06 1.20163e-07)
(0.00162232 3.00166e-06 7.07838e-08)
(0.00161973 2.15077e-06 4.15576e-08)
(0.00161846 1.47525e-06 2.45624e-08)
(0.00161784 9.63818e-07 1.47047e-08)
(0.00161753 5.94253e-07 8.93236e-09)
(0.00161738 3.39547e-07 5.49576e-09)
(0.00161728 1.72576e-07 3.40865e-09)
(0.00161722 6.91792e-08 2.12391e-09)
(0.00161717 9.53883e-09 1.31808e-09)
(0.00161713 -2.1475e-08 8.14461e-10)
(0.00161709 -3.48138e-08 5.01167e-10)
(0.00161706 -3.7925e-08 3.0405e-10)
(0.00161704 -3.56642e-08 1.81002e-10)
(0.00161702 -3.09974e-08 1.09849e-10)
(0.00161701 -2.56314e-08 6.83727e-11)
(0.00161699 -2.04687e-08 4.62981e-11)
(0.00161699 -1.5905e-08 3.00502e-11)
(0.00161698 -1.2074e-08 2.60753e-11)
(0.00161697 -8.95097e-09 2.3457e-11)
(0.00161697 -6.43902e-09 1.78481e-11)
(0.00161697 -4.41749e-09 1.62351e-11)
(0.00161696 -2.77458e-09 8.12982e-12)
(0.00161696 -1.39529e-09 1.25726e-12)
(0.00161696 -1.93737e-10 -1.33615e-11)
(0.00161696 8.97624e-10 -1.12453e-11)
(0.00161696 1.88622e-09 -3.94997e-11)
(0.00161696 2.7483e-09 1.05159e-10)
(0.00161696 3.44024e-09 -4.00567e-10)
(0.00161699 3.42715e-09 1.007e-09)
(0.00161674 3.69858e-09 2.01709e-09)
(0.00559979 3.3046e-06 0.000295422)
(0.00346942 5.77368e-06 6.88003e-05)
(0.00234729 6.86559e-06 1.54935e-05)
(0.00200182 7.07521e-06 3.01855e-06)
(0.00183134 6.78028e-06 1.22291e-06)
(0.00173875 6.16634e-06 7.42482e-07)
(0.00168511 5.3723e-06 4.93424e-07)
(0.00165385 4.49971e-06 3.13053e-07)
(0.00163622 3.62678e-06 1.87722e-07)
(0.00162667 2.81234e-06 1.07756e-07)
(0.00162172 2.09599e-06 5.94989e-08)
(0.00161927 1.4986e-06 3.16966e-08)
(0.00161811 1.02465e-06 1.62579e-08)
(0.00161759 6.66218e-07 7.9634e-09)
(0.00161737 4.07648e-07 3.64564e-09)
(0.00161727 2.29872e-07 1.48716e-09)
(0.00161722 1.13769e-07 4.62438e-10)
(0.00161718 4.22841e-08 2.44202e-11)
(0.00161715 1.45582e-09 -1.37276e-10)
(0.00161712 -1.93709e-08 -1.70818e-10)
(0.00161709 -2.78946e-08 -1.53178e-10)
(0.00161706 -2.9376e-08 -1.1917e-10)
(0.00161704 -2.71943e-08 -8.34446e-11)
(0.00161702 -2.34265e-08 -5.32109e-11)
(0.00161701 -1.92727e-08 -3.20592e-11)
(0.001617 -1.5334e-08 -1.78653e-11)
(0.00161699 -1.18867e-08 -4.37215e-12)
(0.00161698 -9.00603e-09 4.34998e-12)
(0.00161698 -6.66055e-09 8.6395e-12)
(0.00161697 -4.78207e-09 9.90987e-12)
(0.00161697 -3.27155e-09 1.08312e-11)
(0.00161697 -2.0475e-09 7.63485e-12)
(0.00161696 -1.02726e-09 -1.01503e-12)
(0.00161696 -1.50787e-10 -1.31923e-11)
(0.00161696 6.39507e-10 -1.18808e-11)
(0.00161697 1.34079e-09 -4.1057e-11)
(0.00161696 1.91979e-09 1.0793e-10)
(0.00161696 2.38316e-09 -4.0143e-10)
(0.00161699 2.32316e-09 1.0062e-09)
(0.00161674 2.49185e-09 2.02448e-09)
(0.00559974 1.96035e-06 0.000295422)
(0.00346917 3.4372e-06 6.8803e-05)
(0.0023468 4.12364e-06 1.54974e-05)
(0.00200117 4.27975e-06 3.02388e-06)
(0.00183058 4.13547e-06 1.22967e-06)
(0.00173795 3.79316e-06 7.50186e-07)
(0.0016843 3.33413e-06 5.01644e-07)
(0.00165309 2.81837e-06 3.21348e-07)
(0.00163554 2.29353e-06 1.95691e-07)
(0.00162608 1.7968e-06 1.15084e-07)
(0.00162123 1.35422e-06 6.59869e-08)
(0.00161888 9.80606e-07 3.72247e-08)
(0.00161782 6.80566e-07 2.08099e-08)
(0.00161738 4.50768e-07 1.15828e-08)
(0.00161722 2.82707e-07 6.42761e-09)
(0.00161716 1.65367e-07 3.55448e-09)
(0.00161715 8.7321e-08 1.95357e-09)
(0.00161714 3.81482e-08 1.06335e-09)
(0.00161712 9.14921e-09 5.67011e-10)
(0.0016171 -6.44812e-09 2.90455e-10)
(0.00161708 -1.36152e-08 1.41208e-10)
(0.00161706 -1.58204e-08 6.45226e-11)
(0.00161704 -1.53161e-08 2.52166e-11)
(0.00161702 -1.35238e-08 8.76258e-12)
(0.00161701 -1.12908e-08 1.52971e-12)
(0.001617 -9.06623e-09 4.13371e-12)
(0.00161699 -7.07067e-09 4.54919e-12)
(0.00161698 -5.37189e-09 8.00643e-12)
(0.00161698 -3.97393e-09 1.13522e-11)
(0.00161697 -2.84148e-09 1.20077e-11)
(0.00161697 -1.93326e-09 1.1015e-11)
(0.00161697 -1.18846e-09 4.76133e-12)
(0.00161696 -5.69576e-10 -1.76452e-12)
(0.00161696 -4.08151e-11 -1.18983e-11)
(0.00161696 4.32726e-10 -1.31606e-11)
(0.00161697 8.49399e-10 -4.1104e-11)
(0.00161696 1.17923e-09 1.06999e-10)
(0.00161696 1.43625e-09 -4.00056e-10)
(0.00161698 1.37223e-09 1.00241e-09)
(0.00161674 1.44751e-09 2.0339e-09)
(0.00559972 6.44257e-07 0.00029542)
(0.00346905 1.12467e-06 6.88016e-05)
(0.00234655 1.34692e-06 1.54959e-05)
(0.00200082 1.38987e-06 3.02187e-06)
(0.00183018 1.33499e-06 1.22725e-06)
(0.00173751 1.21586e-06 7.47296e-07)
(0.00168387 1.06023e-06 4.98403e-07)
(0.00165268 8.88149e-07 3.17908e-07)
(0.00163517 7.15348e-07 1.92194e-07)
(0.00162577 5.53861e-07 1.11679e-07)
(0.00162097 4.11842e-07 6.28163e-08)
(0.00161868 2.93575e-07 3.43936e-08)
(0.00161767 1.99976e-07 1.83841e-08)
(0.00161727 1.29419e-07 9.57887e-09)
(0.00161714 7.87096e-08 4.83815e-09)
(0.00161711 4.40028e-08 2.33241e-09)
(0.00161712 2.14619e-08 1.03938e-09)
(0.00161712 7.68143e-09 3.97104e-10)
(0.00161711 -1.05136e-10 9.32272e-11)
(0.0016171 -4.00356e-09 -3.61412e-11)
(0.00161708 -5.54335e-09 -7.46211e-11)
(0.00161706 -5.74028e-09 -7.21392e-11)
(0.00161704 -5.25096e-09 -6.49316e-11)
(0.00161703 -4.47493e-09 -4.87174e-11)
(0.00161701 -3.6345e-09 -3.44634e-11)
(0.001617 -2.85886e-09 -2.00372e-11)
(0.00161699 -2.18356e-09 -9.51366e-12)
(0.00161698 -1.62587e-09 -7.44821e-13)
(0.00161698 -1.17377e-09 6.9143e-12)
(0.00161697 -8.08391e-10 8.81203e-12)
(0.00161697 -5.12767e-10 8.00114e-12)
(0.00161697 -2.72707e-10 6.466e-12)
(0.00161696 -6.2542e-11 -1.96861e-12)
(0.00161696 1.08135e-10 -1.40616e-11)
(0.00161696 2.57304e-10 -1.38076e-11)
(0.00161697 3.87459e-10 -3.90822e-11)
(0.00161696 4.8056e-10 1.046e-10)
(0.00161696 5.42909e-10 -3.98517e-10)
(0.00161698 4.85161e-10 1.00471e-09)
(0.00161674 4.73674e-10 2.03604e-09)
(0.00559972 -6.44002e-07 0.00029542)
(0.00346905 -1.12425e-06 6.88016e-05)
(0.00234655 -1.34635e-06 1.54959e-05)
(0.00200082 -1.38923e-06 3.02187e-06)
(0.00183018 -1.33444e-06 1.22725e-06)
(0.00173752 -1.21569e-06 7.47293e-07)
(0.00168387 -1.06054e-06 4.98399e-07)
(0.00165268 -8.88821e-07 3.17901e-07)
(0.00163517 -7.16023e-07 1.92185e-07)
(0.00162577 -5.54117e-07 1.11672e-07)
(0.00162098 -4.11328e-07 6.28105e-08)
(0.00161868 -2.92138e-07 3.43889e-08)
(0.00161767 -1.97639e-07 1.83804e-08)
(0.00161727 -1.26348e-07 9.57929e-09)
(0.00161714 -7.51458e-08 4.8363e-09)
(0.00161711 -4.02009e-08 2.32848e-09)
(0.00161712 -1.76439e-08 1.03852e-09)
(0.00161712 -4.02072e-09 3.98997e-10)
(0.00161711 3.49496e-09 9.47558e-11)
(0.0016171 7.05816e-09 -3.53872e-11)
(0.00161708 8.21962e-09 -7.52792e-11)
(0.00161706 8.05708e-09 -7.36413e-11)
(0.00161704 7.22059e-09 -6.01074e-11)
(0.00161703 6.12207e-09 -4.59108e-11)
(0.00161701 5.0053e-09 -3.20342e-11)
(0.001617 3.99043e-09 -2.07544e-11)
(0.00161699 3.11394e-09 -8.68805e-12)
(0.00161698 2.38968e-09 1.37164e-12)
(0.00161698 1.81223e-09 3.53203e-12)
(0.00161697 1.3498e-09 8.8847e-12)
(0.00161697 9.9344e-10 8.3045e-12)
(0.00161697 7.05135e-10 2.3665e-12)
(0.00161696 4.75579e-10 -7.20703e-13)
(0.00161696 2.8571e-10 -1.47874e-11)
(0.00161696 1.10552e-10 -1.33468e-11)
(0.00161697 -4.89921e-11 -4.18286e-11)
(0.00161696 -1.91624e-10 1.06123e-10)
(0.00161696 -3.23635e-10 -4.00502e-10)
(0.00161698 -3.69525e-10 1.00159e-09)
(0.00161674 -4.66774e-10 2.03541e-09)
(0.00559974 -1.96011e-06 0.000295422)
(0.00346917 -3.4368e-06 6.88029e-05)
(0.0023468 -4.12308e-06 1.54974e-05)
(0.00200117 -4.27914e-06 3.02388e-06)
(0.00183058 -4.13498e-06 1.22967e-06)
(0.00173795 -3.79301e-06 7.50187e-07)
(0.00168431 -3.33442e-06 5.01635e-07)
(0.00165309 -2.81895e-06 3.2134e-07)
(0.00163554 -2.29407e-06 1.95685e-07)
(0.00162608 -1.79689e-06 1.15079e-07)
(0.00162123 -1.35355e-06 6.59855e-08)
(0.00161888 -9.79049e-07 3.72275e-08)
(0.00161782 -6.78156e-07 2.08145e-08)
(0.00161738 -4.4767e-07 1.15882e-08)
(0.00161722 -2.79157e-07 6.4387e-09)
(0.00161716 -1.61605e-07 3.56299e-09)
(0.00161715 -8.35654e-08 1.96196e-09)
(0.00161714 -3.45615e-08 1.0681e-09)
(0.00161712 -5.83214e-09 5.72793e-10)
(0.0016171 9.4282e-09 2.93467e-10)
(0.00161708 1.62381e-08 1.47549e-10)
(0.00161706 1.8079e-08 6.45892e-11)
(0.00161704 1.72355e-08 2.63461e-11)
(0.00161702 1.51395e-08 1.09597e-11)
(0.00161701 1.26324e-08 5.24315e-12)
(0.001617 1.01765e-08 4.11489e-12)
(0.00161699 7.97946e-09 4.77413e-12)
(0.00161698 6.12361e-09 9.30098e-12)
(0.00161698 4.60049e-09 1.32609e-11)
(0.00161697 3.3757e-09 1.22981e-11)
(0.00161697 2.40587e-09 9.52425e-12)
(0.00161697 1.6195e-09 5.21218e-12)
(0.00161696 9.77849e-10 -2.12095e-12)
(0.00161696 4.31143e-10 -1.27956e-11)
(0.00161696 -6.04047e-11 -1.31541e-11)
(0.00161697 -5.05624e-10 -3.95612e-11)
(0.00161696 -8.85956e-10 1.05258e-10)
(0.00161696 -1.21316e-09 -3.98883e-10)
(0.00161698 -1.25187e-09 1.00211e-09)
(0.00161674 -1.43819e-09 2.03259e-09)
(0.00559979 -3.30437e-06 0.000295422)
(0.00346942 -5.77328e-06 6.88003e-05)
(0.00234729 -6.86504e-06 1.54935e-05)
(0.00200182 -7.0746e-06 3.01856e-06)
(0.00183134 -6.77978e-06 1.22291e-06)
(0.00173876 -6.16617e-06 7.42477e-07)
(0.00168511 -5.37255e-06 4.93411e-07)
(0.00165385 -4.50022e-06 3.13038e-07)
(0.00163623 -3.6272e-06 1.87703e-07)
(0.00162667 -2.8123e-06 1.0774e-07)
(0.00162172 -2.0952e-06 5.94943e-08)
(0.00161927 -1.49694e-06 3.16935e-08)
(0.00161812 -1.02217e-06 1.62614e-08)
(0.0016176 -6.63099e-07 7.96588e-09)
(0.00161737 -4.04118e-07 3.6542e-09)
(0.00161727 -2.26173e-07 1.49506e-09)
(0.00161722 -1.10094e-07 4.71136e-10)
(0.00161718 -3.87833e-08 2.89115e-11)
(0.00161715 1.75997e-09 -1.32267e-10)
(0.00161712 2.22572e-08 -1.64626e-10)
(0.00161709 3.04373e-08 -1.47692e-10)
(0.00161706 3.15593e-08 -1.14627e-10)
(0.00161704 2.90501e-08 -8.03157e-11)
(0.00161702 2.49906e-08 -5.29485e-11)
(0.00161701 2.0569e-08 -3.32578e-11)
(0.001617 1.64063e-08 -1.22804e-11)
(0.00161699 1.27648e-08 -2.80126e-12)
(0.00161698 9.7301e-09 5.70146e-12)
(0.00161698 7.26437e-09 7.8938e-12)
(0.00161697 5.29607e-09 9.56299e-12)
(0.00161697 3.73087e-09 1.37005e-11)
(0.00161697 2.47065e-09 5.6231e-12)
(0.00161696 1.42996e-09 9.57877e-13)
(0.00161696 5.36697e-10 -1.20287e-11)
(0.00161696 -2.67164e-10 -1.21532e-11)
(0.00161697 -9.99134e-10 -3.90502e-11)
(0.00161696 -1.62884e-09 1.0679e-10)
(0.00161696 -2.15853e-09 -3.97664e-10)
(0.00161698 -2.20052e-09 1.0079e-09)
(0.00161674 -2.47652e-09 2.027e-09)
(0.00559988 -4.76506e-06 0.000295424)
(0.00346984 -8.31016e-06 6.8802e-05)
(0.00234809 -9.84058e-06 1.54987e-05)
(0.00200285 -1.01247e-05 3.02655e-06)
(0.00183248 -9.6896e-06 1.2329e-06)
(0.00173993 -8.80677e-06 7.54148e-07)
(0.00168624 -7.67115e-06 5.06193e-07)
(0.00165489 -6.4261e-06 3.26283e-07)
(0.00163713 -5.18193e-06 2.00809e-07)
(0.00162743 -4.02155e-06 1.20152e-07)
(0.00162233 -3.00076e-06 7.07841e-08)
(0.00161974 -2.14904e-06 4.15663e-08)
(0.00161846 -1.47276e-06 2.4574e-08)
(0.00161784 -9.60746e-07 1.47204e-08)
(0.00161754 -5.90827e-07 8.94916e-09)
(0.00161738 -3.35987e-07 5.51017e-09)
(0.00161728 -1.69068e-07 3.42244e-09)
(0.00161722 -6.58552e-08 2.13353e-09)
(0.00161717 -6.49554e-09 1.32819e-09)
(0.00161712 2.42009e-08 8.22208e-10)
(0.00161709 3.72037e-08 5.05389e-10)
(0.00161706 3.99924e-08 3.08306e-10)
(0.00161704 3.74186e-08 1.85959e-10)
(0.00161702 3.24698e-08 1.1403e-10)
(0.00161701 2.68554e-08 6.9406e-11)
(0.00161699 2.14753e-08 4.60445e-11)
(0.00161699 1.67361e-08 3.39379e-11)
(0.00161698 1.27611e-08 2.75056e-11)
(0.00161697 9.52344e-09 2.25228e-11)
(0.00161697 6.93404e-09 2.0077e-11)
(0.00161697 4.85402e-09 1.52479e-11)
(0.00161696 3.18364e-09 9.82335e-12)
(0.00161696 1.7822e-09 1.59588e-12)
(0.00161696 5.75496e-10 -1.0588e-11)
(0.00161696 -5.28486e-10 -7.86262e-12)
(0.00161696 -1.54451e-09 -3.88546e-11)
(0.00161696 -2.44839e-09 1.0654e-10)
(0.00161696 -3.21124e-09 -4.00753e-10)
(0.00161698 -3.29707e-09 1.00824e-09)
(0.00161674 -3.68173e-09 2.01717e-09)
(0.0056 -6.30268e-06 0.000295421)
(0.00347041 -1.08708e-05 6.87914e-05)
(0.00234919 -1.26922e-05 1.54857e-05)
(0.00200426 -1.28964e-05 3.01009e-06)
(0.00183406 -1.21934e-05 1.2132e-06)
(0.00174156 -1.09556e-05 7.32493e-07)
(0.00168783 -9.43409e-06 4.83715e-07)
(0.00165636 -7.80974e-06 3.04016e-07)
(0.00163844 -6.21815e-06 1.79634e-07)
(0.00162855 -4.75842e-06 1.00755e-07)
(0.00162324 -3.49439e-06 5.36156e-08)
(0.00162046 -2.45639e-06 2.6882e-08)
(0.00161901 -1.64597e-06 1.24311e-08)
(0.00161824 -1.04355e-06 5.00226e-09)
(0.00161782 -6.1719e-07 1.42936e-09)
(0.00161757 -3.30362e-07 -1.23115e-10)
(0.00161741 -1.47825e-07 -6.67521e-10)
(0.00161729 -3.91e-08 -7.4493e-10)