/*--------------------------------*- C++ -*----------------------------------*\
| =========                 |                                                 |
| \\      /  F ield         | OpenFOAM: The Open Source CFD Toolbox           |
|  \\    /   O peration     | Version:  5.0                                   |
|   \\  /    A nd           | Web:      www.OpenFOAM.org                      |
|    \\/     M anipulation  |                                                 |
\*---------------------------------------------------------------------------*/
FoamFile
{
    version     2.0;
    format      ascii;
    class       volScalarField;
    location    "300/air";
    object      alphat;
}
// * * * * * * * * * * * * * * * * * * * * * * * * * * * * * * * * * * * * * //

dimensions      [1 -1 -1 0 0 0 0];

internalField   nonuniform List<scalar> 
243000
(
0.000179062
0.00017861
0.000173869
0.000167215
0.000159584
0.000151439
0.000142978
0.000134435
0.000125836
0.000117591
0.000109832
0.000102857
9.57736e-05
0.000106322
0.000134675
0.000153821
0.000167527
0.000177476
0.000181444
0.000179694
0.000174766
0.000170183
0.000165517
0.000161106
0.000157146
0.000153723
0.000151478
0.000150418
0.000154234
0.000160269
0.000862672
0.000872625
0.000868501
0.000857188
0.000842173
0.000823791
0.000801985
0.000777561
0.000750365
0.000722658
0.000694507
0.000669865
0.000645938
0.000743919
0.00090117
0.00101247
0.00108952
0.00114179
0.0011548
0.00112789
0.00107983
0.00103198
0.000982325
0.000934657
0.000889473
0.000848072
0.000813332
0.000785374
0.000775358
0.000775135
0.00096362
0.000972871
0.00096693
0.000953764
0.000936891
0.000916645
0.000893001
0.000866898
0.000838288
0.000809586
0.000780709
0.000756341
0.000737051
0.000853924
0.00100827
0.00112113
0.00120017
0.00125378
0.00126901
0.00124375
0.00119539
0.00114641
0.00109551
0.00104644
0.000999883
0.000957458
0.00092202
0.000894334
0.000884017
0.000886274
0.00103321
0.00104236
0.0010363
0.00102314
0.00100598
0.000985247
0.000961023
0.000934332
0.000905238
0.000876122
0.000846849
0.000822842
0.000808975
0.000936242
0.00108323
0.00119342
0.00127159
0.00132402
0.00134042
0.00131811
0.00127141
0.00122327
0.0011731
0.00112443
0.00107814
0.00103614
0.00100116
0.000974533
0.00096412
0.000968142
0.00108592
0.00109487
0.00108921
0.00107656
0.00105965
0.00103896
0.00101468
0.000987902
0.000958759
0.000929478
0.000900003
0.000876426
0.000868539
0.00100056
0.00113853
0.00124411
0.00131997
0.00137024
0.00138723
0.00136842
0.00132438
0.00127814
0.0012297
0.00118238
0.00113725
0.00109643
0.00106251
0.00103721
0.00102685
0.00103186
0.00112852
0.00113721
0.00113198
0.00111986
0.00110327
0.00108273
0.00105857
0.00103187
0.00100282
0.00097343
0.000943791
0.000920549
0.000919185
0.00105183
0.0011805
0.00128072
0.00135356
0.0014015
0.00141875
0.00140357
0.00136276
0.00131903
0.00127287
0.00122742
0.00118398
0.00114475
0.00111222
0.00108833
0.00107816
0.00108361
0.00116479
0.00117308
0.00116808
0.0011563
0.0011399
0.00111944
0.00109536
0.00106875
0.00103977
0.00101019
0.000980326
0.000957346
0.000963234
0.00109268
0.00121282
0.00130755
0.00137714
0.00142295
0.00144027
0.00142866
0.00139142
0.00135056
0.001307
0.00126376
0.00122232
0.00118493
0.00115398
0.00113151
0.00112164
0.00112722
0.00119689
0.00120458
0.00119953
0.00118784
0.00117142
0.00115088
0.00112676
0.00110011
0.00107108
0.00104115
0.00101091
0.000988099
0.00100103
0.00112559
0.00123781
0.00132724
0.00139362
0.00143759
0.00145495
0.00144674
0.00141334
0.00137552
0.00133477
0.00129399
0.00125475
0.00121936
0.0011901
0.00116899
0.00115953
0.00116502
0.00122603
0.0012329
0.00122754
0.00121567
0.00119899
0.00117818
0.00115383
0.00112697
0.0010977
0.00106721
0.00103638
0.00101364
0.00103314
0.00115208
0.00125696
0.00134144
0.00140482
0.00144727
0.00146475
0.00145974
0.00143031
0.00139564
0.00135786
0.0013197
0.0012828
0.00124948
0.00122194
0.00120219
0.00119321
0.00119849
0.00125282
0.00125867
0.00125279
0.00124049
0.00122332
0.001202
0.00117725
0.00115
0.00112026
0.00108897
0.00105728
0.00103456
0.00106016
0.00117312
0.00127125
0.00135122
0.00141187
0.00145308
0.00147085
0.0014688
0.0014434
0.00141197
0.00137725
0.00134182
0.00130732
0.0012761
0.00125035
0.00123197
0.00122359
0.00122865
0.00127754
0.0012822
0.00127561
0.00126266
0.00124477
0.00122277
0.00119742
0.00116958
0.00113915
0.00110684
0.00107404
0.00105147
0.00108218
0.00118931
0.00128131
0.00135721
0.00141532
0.00145556
0.00147389
0.00147456
0.0014532
0.00142506
0.00139345
0.00136074
0.0013287
0.00129967
0.0012758
0.00125887
0.00125124
0.00125609
0.00130023
0.00130353
0.00129606
0.00128228
0.00126351
0.00124065
0.00121455
0.00118595
0.00115463
0.00112118
0.00108709
0.0010648
0.00109949
0.00120107
0.00128753
0.00135973
0.00141589
0.00145551
0.00147419
0.00147731
0.00145996
0.00143518
0.00140659
0.00137665
0.00134715
0.0013204
0.00129852
0.00128316
0.00127642
0.00128107
0.00132068
0.0013225
0.00131404
0.00129929
0.00127951
0.00125569
0.0012287
0.00119919
0.00116678
0.00113198
0.00109654
0.00107495
0.00111275
0.00120877
0.00129026
0.00135925
0.00141347
0.00145254
0.00147182
0.00147721
0.00146381
0.00144228
0.00141672
0.00138954
0.00136266
0.00133832
0.00131856
0.00130487
0.00129912
0.00130356
0.00133855
0.0013388
0.00132928
0.00131348
0.00129262
0.00126774
0.00123974
0.00120913
0.00117541
0.00113915
0.0011032
0.00108571
0.00112576
0.00121381
0.00128971
0.00135566
0.00140811
0.00144677
0.00146675
0.00147418
0.00146417
0.00144628
0.00142376
0.00139937
0.00137512
0.00135327
0.00133575
0.00132381
0.00131912
0.00132334
0.00135335
0.00135203
0.00134143
0.00132451
0.00130249
0.00127657
0.00124756
0.00121586
0.00118091
0.00114382
0.00111051
0.00109651
0.0011377
0.00121886
0.00128931
0.00135076
0.00140025
0.00143834
0.00145887
0.00146814
0.0014613
0.00144649
0.00142733
0.00140593
0.00138438
0.001365
0.00134979
0.00133967
0.00133604
0.00134001
0.00136456
0.00136173
0.00135001
0.00133201
0.00130898
0.0012821
0.00125214
0.00121959
0.00118431
0.00114903
0.00111809
0.00110708
0.00114854
0.00122365
0.00128918
0.00134675
0.00139364
0.0014294
0.00144921
0.0014593
0.00145505
0.00144323
0.00142676
0.00140864
0.00139006
0.00137322
0.00136029
0.00135201
0.00134944
0.0013531
0.00137163
0.00136735
0.00135464
0.00133574
0.00131187
0.00128432
0.00125375
0.00122197
0.0011881
0.00115442
0.0011256
0.00111721
0.00115821
0.00122793
0.00128904
0.0013432
0.00138772
0.00142155
0.00144084
0.00145092
0.00144751
0.001437
0.00142283
0.00140725
0.00139153
0.00137757
0.00136687
0.00136037
0.00135878
0.00136209
0.00137416
0.00136866
0.00135529
0.00133581
0.00131169
0.00128492
0.00125537
0.00122451
0.0011919
0.00115966
0.0011328
0.00112672
0.00116681
0.0012314
0.00128863
0.00133977
0.00138208
0.00141432
0.00143324
0.00144327
0.00144067
0.0014316
0.00141874
0.0014042
0.00138949
0.00137754
0.00136921
0.00136435
0.00136355
0.0013665
0.00137188
0.00136539
0.00135299
0.00133459
0.00131144
0.0012854
0.00125679
0.00122684
0.0011954
0.00116453
0.00113949
0.00113546
0.00117419
0.00123394
0.00128777
0.00133614
0.00137641
0.00140731
0.00142592
0.00143587
0.00143405
0.00142635
0.00141473
0.00140124
0.00138768
0.0013765
0.00136837
0.00136361
0.00136338
0.00136605
0.00136783
0.00136209
0.00135045
0.00133295
0.00131071
0.00128547
0.00125778
0.00122873
0.00119842
0.00116887
0.00114551
0.00114333
0.00118031
0.0012354
0.0012862
0.001332
0.00137041
0.00140013
0.00141845
0.00142833
0.00142723
0.00142078
0.00141036
0.00139792
0.0013855
0.00137504
0.00136718
0.00136245
0.00136124
0.00136231
0.0013634
0.00135801
0.00134711
0.0013305
0.00130921
0.00128487
0.00125813
0.00123001
0.0012008
0.00117259
0.00115079
0.0011502
0.00118516
0.00123565
0.00128357
0.00132711
0.00136378
0.00139244
0.00141044
0.00142027
0.00141986
0.00141452
0.00140528
0.00139396
0.00138254
0.00137274
0.00136519
0.00136045
0.00135841
0.0013582
0.00135787
0.00135268
0.0013425
0.00132687
0.00130667
0.00128337
0.0012577
0.00123052
0.00120244
0.00117558
0.00115527
0.00115595
0.0011886
0.00123475
0.00127974
0.00132119
0.00135627
0.0013839
0.00140159
0.00141137
0.0014116
0.00140726
0.00139915
0.00138895
0.00137855
0.00136932
0.00136201
0.00135716
0.00135435
0.00135309
0.00135075
0.00134573
0.00133627
0.00132179
0.00130286
0.00128072
0.00125623
0.00123022
0.00120329
0.00117779
0.00115889
0.00116048
0.00119054
0.00123266
0.00127471
0.00131392
0.00134761
0.00137423
0.00139157
0.00140128
0.00140213
0.00139872
0.00139168
0.00138257
0.00137312
0.00136442
0.00135729
0.00135219
0.00134863
0.00134641
0.0013416
0.00133686
0.00132826
0.00131498
0.0012975
0.00127675
0.0012536
0.00122891
0.00120333
0.0011792
0.00116167
0.00116375
0.00119083
0.00122925
0.00126833
0.00130521
0.00133754
0.0013632
0.00138013
0.0013897
0.00139114
0.00138859
0.00138259
0.00137453
0.00136592
0.00135771
0.00135068
0.0013452
0.00134084
0.00133769
0.00133007
0.00132579
0.00131827
0.00130633
0.00129038
0.00127127
0.00124974
0.00122655
0.00120253
0.00117996
0.00116376
0.00116594
0.00118999
0.00122465
0.0012607
0.0012952
0.00132597
0.00135069
0.00136707
0.00137641
0.00137835
0.00137662
0.00137168
0.00136465
0.00135683
0.00134901
0.00134192
0.00133587
0.00133058
0.0013265
0.00131584
0.00131232
0.00130614
0.00129577
0.0012816
0.00126432
0.00124472
0.00122337
0.00120129
0.00118072
0.00116589
0.00116789
0.00118888
0.00121977
0.00125266
0.00128456
0.00131342
0.00133706
0.00135263
0.00136153
0.00136382
0.00136278
0.00135884
0.00135282
0.00134571
0.00133819
0.00133088
0.00132411
0.00131772
0.00131253
0.00129912
0.00129673
0.00129229
0.0012839
0.00127197
0.00125697
0.00124006
0.00122152
0.00120215
0.00118393
0.00117136
0.00117311
0.00119129
0.00121831
0.00124766
0.00127641
0.00130269
0.00132447
0.0013386
0.0013466
0.00134884
0.00134815
0.00134494
0.00133971
0.00133313
0.0013257
0.00131798
0.00131025
0.00130254
0.0012961
0.0012827
0.00128243
0.00128075
0.00127565
0.00126746
0.00125683
0.00124425
0.00123047
0.00121596
0.00120248
0.00119363
0.00119598
0.00121151
0.00123444
0.00125905
0.00128301
0.00130472
0.00132252
0.00133348
0.00133921
0.00134047
0.0013393
0.00133594
0.00133074
0.00132388
0.00131584
0.00130708
0.00129779
0.00128818
0.00127998
0.00129761
0.00130235
0.00130658
0.0013084
0.00130814
0.00130648
0.00130362
0.00129936
0.00129377
0.00128828
0.00128511
0.0012885
0.00130002
0.00131592
0.00133222
0.00134749
0.0013603
0.00136945
0.00137397
0.00137526
0.00137384
0.00137059
0.00136563
0.001359
0.00135069
0.00134091
0.00133006
0.00131816
0.00130579
0.00129507
0.0015342
0.00154376
0.00155262
0.00156032
0.00156684
0.00157247
0.00157686
0.00157728
0.00157424
0.00156952
0.00156406
0.00156001
0.00155874
0.00155921
0.00155914
0.00156079
0.00156238
0.00155974
0.0015569
0.00155658
0.00155802
0.00156043
0.00156265
0.00156385
0.00156364
0.00156135
0.00155685
0.00154968
0.00154116
0.00153267
0.000233288
0.000232211
0.000224977
0.000215516
0.000204819
0.000193478
0.000181723
0.00017005
0.000158646
0.000148754
0.000141145
0.000138977
0.000143301
0.000161331
0.000183977
0.000205423
0.000222208
0.000235782
0.000241253
0.000238117
0.000232426
0.000226659
0.000221022
0.000216054
0.000211994
0.000208923
0.000207273
0.000206548
0.000209225
0.000214452
0.00128124
0.00126065
0.00116872
0.00107096
0.000985434
0.000908402
0.00083988
0.000783692
0.000738347
0.000707288
0.00068448
0.000683656
0.000693906
0.000754566
0.000856577
0.000964604
0.0010483
0.0011292
0.00116368
0.00113335
0.00109551
0.00106138
0.00102793
0.00100185
0.000981796
0.00096778
0.000960515
0.000954805
0.000954132
0.000980281
0.00231847
0.00238095
0.0022697
0.00211032
0.00195248
0.00180229
0.00166574
0.00155246
0.00146141
0.00139741
0.00135029
0.00134585
0.00135075
0.0014581
0.00164076
0.00183155
0.00197426
0.00211319
0.002191
0.00215618
0.00209539
0.00203877
0.00198236
0.00193633
0.00189862
0.00186856
0.00185268
0.00184546
0.00184937
0.00191176
0.00324199
0.00337827
0.00327651
0.00308753
0.00287895
0.00267036
0.00247521
0.00231028
0.00217757
0.00208213
0.00201323
0.0020013
0.00200188
0.00215535
0.00239209
0.00263965
0.00282273
0.00299972
0.0031202
0.00309959
0.00303179
0.00296606
0.0028984
0.00284
0.00278665
0.00274733
0.00272676
0.00272069
0.00272973
0.00282515
0.0040597
0.00424865
0.00416283
0.00396234
0.0037227
0.00347279
0.00323295
0.00302687
0.00285906
0.00273858
0.00265193
0.00263374
0.00263781
0.00282637
0.00309409
0.00337582
0.00358729
0.00378733
0.00394573
0.00395073
0.00388834
0.00382363
0.00375296
0.00368645
0.00362354
0.00357883
0.00355515
0.00355154
0.00356566
0.00368706
0.00479748
0.00500858
0.00494691
0.00473869
0.00447635
0.00419933
0.00392898
0.0036922
0.00349895
0.0033589
0.00325912
0.00323605
0.00325208
0.00346269
0.00374451
0.0040442
0.00427537
0.00448917
0.00467883
0.00471589
0.00466796
0.00461079
0.00454189
0.00446898
0.00440457
0.00435858
0.00433446
0.00433495
0.00435459
0.0044946
0.00547362
0.0056818
0.00562277
0.0054136
0.00514234
0.00484981
0.00456076
0.00430355
0.00409339
0.0039392
0.0038307
0.00380688
0.00383433
0.00405733
0.00434231
0.00464864
0.00489305
0.00511562
0.0053287
0.0054007
0.005373
0.00532737
0.00526211
0.0051921
0.00513194
0.00508899
0.00506728
0.00507472
0.00510003
0.00525306
0.00609633
0.00627445
0.00620581
0.00599727
0.00572531
0.00542702
0.00512853
0.0048595
0.00463947
0.00447634
0.00436211
0.00434114
0.00437873
0.00460521
0.00488576
0.0051909
0.00544385
0.00567233
0.00590044
0.00600747
0.00600327
0.00597125
0.00591402
0.00585864
0.00580756
0.00577203
0.00575632
0.00575963
0.00578526
0.00593658
0.00666099
0.00678956
0.00670571
0.00649947
0.00623158
0.00593393
0.00563294
0.00535912
0.00513466
0.00496737
0.00484875
0.00483314
0.00487823
0.00510198
0.00537255
0.00567103
0.00592907
0.00616155
0.00639679
0.00653603
0.00655698
0.00653967
0.00650525
0.0064673
0.00643104
0.00639858
0.00637572
0.00637391
0.00639548
0.0065237
0.0071481
0.00722973
0.00713108
0.00692896
0.00666654
0.00637302
0.00607491
0.00580194
0.00557722
0.00540996
0.00528761
0.00528019
0.00533573
0.00554376
0.00580034
0.00608825
0.00634795
0.00658451
0.00681983
0.00698515
0.00703266
0.00703977
0.00703149
0.00701458
0.00697849
0.00694096
0.0069151
0.00690925
0.0069236
0.00703591
0.00756417
0.00760047
0.00748998
0.00729046
0.00703404
0.00674739
0.00645594
0.00618795
0.00596616
0.00580212
0.00567758
0.00567403
0.00573753
0.00592732
0.00616725
0.00644179
0.00669987
0.00694081
0.00717186
0.00735416
0.0074312
0.00746993
0.00748629
0.00746972
0.00743436
0.00739845
0.0073727
0.00736446
0.00738253
0.00747562
0.00791105
0.00790756
0.00778643
0.00758819
0.0073379
0.00705975
0.00677753
0.00651739
0.00630126
0.00614315
0.00601658
0.0060098
0.00607954
0.00624977
0.00647214
0.00673135
0.00698492
0.0072291
0.00745466
0.00764571
0.00775649
0.00782469
0.00784501
0.00783398
0.00780563
0.00777576
0.00775492
0.0077529
0.00777269
0.00784502
0.00818985
0.00815418
0.00802281
0.007825
0.0075809
0.00731229
0.00704097
0.00679064
0.00658174
0.00642895
0.00629998
0.00628553
0.00635835
0.00650916
0.00671458
0.00695706
0.00720384
0.00744907
0.0076699
0.00786298
0.00800738
0.00808817
0.00811786
0.0081178
0.008101
0.00808173
0.00807049
0.00807457
0.00809466
0.00814586
0.0084022
0.00834078
0.00820012
0.00800256
0.00776484
0.00750662
0.00724745
0.00700831
0.00680718
0.00665744
0.00652121
0.00648779
0.00656219
0.00671131
0.00689427
0.00711913
0.00735836
0.00760094
0.0078194
0.00800932
0.00817719
0.00827016
0.00831451
0.00832921
0.00832692
0.00832013
0.00831908
0.00832929
0.00834875
0.00837938
0.00854912
0.00846708
0.00831851
0.00812153
0.00789062
0.00764384
0.00739822
0.00717152
0.00697749
0.00682761
0.00667458
0.00662434
0.00668821
0.00682819
0.00699797
0.00721373
0.00744283
0.00767848
0.00789974
0.00808773
0.00826475
0.00837788
0.0084399
0.00847168
0.00848454
0.00849111
0.00850067
0.00851695
0.00853515
0.00854627
0.00863137
0.00853272
0.00837743
0.00818129
0.0079576
0.00772437
0.00749456
0.00728188
0.00709164
0.00692314
0.00675975
0.00669676
0.00674521
0.00686735
0.00701768
0.00721671
0.00743936
0.00768083
0.00790969
0.00809723
0.00827925
0.00841468
0.00849533
0.00854601
0.00857528
0.00859514
0.00861575
0.00863777
0.00865429
0.0086474
0.00864997
0.00853711
0.00837482
0.00817944
0.0079649
0.00774703
0.00753668
0.00732539
0.00712654
0.00694609
0.00677789
0.00670424
0.00673339
0.00683163
0.00695743
0.00713448
0.00734472
0.0075864
0.00781599
0.00801509
0.00821576
0.00837607
0.00847818
0.00855138
0.00860124
0.00863415
0.00866581
0.00869301
0.00870745
0.00868493
0.00860672
0.00848295
0.00831835
0.00813074
0.0079243
0.00770688
0.00749533
0.00728826
0.00708545
0.00690021
0.0067314
0.00664814
0.00665524
0.00672587
0.00682394
0.00697574
0.00716819
0.00740839
0.00763505
0.00783872
0.00805019
0.00823194
0.00837083
0.00847916
0.00856042
0.00861021
0.00865438
0.00868639
0.00869777
0.00866508
0.00851212
0.00838212
0.00820855
0.00801356
0.00780527
0.00759282
0.00738525
0.00717982
0.0069769
0.0067911
0.00662364
0.006532
0.00651524
0.0065565
0.0066255
0.00675039
0.00692412
0.00715824
0.00737767
0.00757955
0.00779466
0.00798899
0.00814944
0.00828502
0.00839791
0.00848756
0.00856349
0.00861294
0.00862476
0.00859297
0.00835102
0.00819889
0.0080191
0.00782191
0.00761558
0.00741272
0.00721281
0.00701128
0.00680844
0.00662605
0.00645899
0.00636022
0.00631903
0.006331
0.0063711
0.0064687
0.0066234
0.00684337
0.00704669
0.00724404
0.00746316
0.00766871
0.00784841
0.00800439
0.00813651
0.00824703
0.0083396
0.00840336
0.00843231
0.00842793
0.00807615
0.00791229
0.00773922
0.00755462
0.0073628
0.00717404
0.00698383
0.00678681
0.00658751
0.00641147
0.00624228
0.00613775
0.00607291
0.00605699
0.00606965
0.00614068
0.00627633
0.00647223
0.0066584
0.00684994
0.00706901
0.00728164
0.00747804
0.0076504
0.00779875
0.00792453
0.00802906
0.0081026
0.00814187
0.00815573
0.00769955
0.00753618
0.00738157
0.0072191
0.00705457
0.00688228
0.00670176
0.00651121
0.00632139
0.00615146
0.00597777
0.00586866
0.00578289
0.0057415
0.00572942
0.00577567
0.00589268
0.00605822
0.00622826
0.0064103
0.00662548
0.00684114
0.00704903
0.00723324
0.00739393
0.00753035
0.00764208
0.00772203
0.00776693
0.00779079
0.00724956
0.0070999
0.0069664
0.00683498
0.00669719
0.00653943
0.0063706
0.00619409
0.00601439
0.00584697
0.00566851
0.00555433
0.00545378
0.00539028
0.00535744
0.00538205
0.00548016
0.00561561
0.00576808
0.00593759
0.00614427
0.00635955
0.00657036
0.0067606
0.00692939
0.00707288
0.00718932
0.00727302
0.00732067
0.00734534
0.00674575
0.00662005
0.00651654
0.0064129
0.00629008
0.0061535
0.00600112
0.00583563
0.00566419
0.00549581
0.00531461
0.00519301
0.00508784
0.00500756
0.00495959
0.00496761
0.00504597
0.00516189
0.00528939
0.00544317
0.00563632
0.00584404
0.00604981
0.00624041
0.00640876
0.00655464
0.00667567
0.00676478
0.00681474
0.00684029
0.0062039
0.0061151
0.0060345
0.00595025
0.00584762
0.00572677
0.0055868
0.00542975
0.00526208
0.00509281
0.00491267
0.00478591
0.00468353
0.00459848
0.00454324
0.00454266
0.00460319
0.00469582
0.00480253
0.0049383
0.00511193
0.00530932
0.00551056
0.00569994
0.00586848
0.00601077
0.00611966
0.00619815
0.00625267
0.00628455
0.00563584
0.00557979
0.00551821
0.00544969
0.005359
0.00524828
0.00511626
0.0049652
0.00480163
0.00463558
0.00446564
0.00434482
0.00425013
0.00417693
0.004126
0.00412503
0.00417012
0.00424206
0.00432738
0.00444172
0.00458977
0.00476446
0.00495144
0.00513209
0.00529585
0.00543398
0.00553781
0.00561407
0.00566152
0.00568592
0.00503467
0.00499836
0.00495384
0.0048954
0.00481414
0.00471213
0.00459048
0.00445178
0.00430223
0.00415347
0.00401271
0.0039133
0.00383916
0.00378481
0.00375168
0.00375396
0.00378936
0.00384404
0.00390841
0.00399417
0.00410679
0.00424432
0.00440025
0.00455838
0.00470273
0.00482549
0.00492178
0.00499179
0.0050336
0.0050571
0.00439436
0.00437672
0.00434992
0.00430643
0.00424305
0.00416395
0.00407124
0.00396643
0.00385366
0.00374493
0.00364904
0.00358287
0.00353524
0.00350067
0.00347947
0.00348293
0.00351261
0.00355344
0.00359322
0.00364658
0.00371901
0.00381072
0.00392142
0.00404341
0.00414838
0.00423595
0.00430543
0.00435397
0.00438242
0.00439812
0.00381971
0.00383199
0.00383653
0.00382071
0.00378864
0.00374667
0.00369582
0.00363487
0.0035615
0.00349114
0.00343233
0.0033881
0.00335482
0.0033302
0.00332672
0.003344
0.00337565
0.00340988
0.00343485
0.00346069
0.00349639
0.00353446
0.00357524
0.00362541
0.00368003
0.00372579
0.00376437
0.00378813
0.00380021
0.00381105
0.00341099
0.00343524
0.00345296
0.00345782
0.00345475
0.00344668
0.00343269
0.00341262
0.00338465
0.00335823
0.0033329
0.00331443
0.00329951
0.00329453
0.00330725
0.00333968
0.00337849
0.00341648
0.00344246
0.00345989
0.00347523
0.00348429
0.00348892
0.00349338
0.00349972
0.00349993
0.00349404
0.00347801
0.00345086
0.00341823
0.000267168
0.000266486
0.000258744
0.000248513
0.000236787
0.000224269
0.00021135
0.000198812
0.000187026
0.00017771
0.000171832
0.000174466
0.000184788
0.000205041
0.000227872
0.000250197
0.000268138
0.000283346
0.000288327
0.000282979
0.000275327
0.00026768
0.000260606
0.000254632
0.000249987
0.000246679
0.000244802
0.000243495
0.0002445
0.000248059
0.00166939
0.00171384
0.00161939
0.0015016
0.00139042
0.00128573
0.00119148
0.0011142
0.00105301
0.00101005
0.000981371
0.000994089
0.0010283
0.00114295
0.00128855
0.00144386
0.0015522
0.00165853
0.00169596
0.00163075
0.0015584
0.00149346
0.00143348
0.00138909
0.00135871
0.00133858
0.00132513
0.00130855
0.00128452
0.00129979
0.00313566
0.00331525
0.00321237
0.00301671
0.00280958
0.00260666
0.00242052
0.00226805
0.00214976
0.00206591
0.00201384
0.00202638
0.00207096
0.00226817
0.00251728
0.00277763
0.00294566
0.00311844
0.00320993
0.00312013
0.0030032
0.00289827
0.00280281
0.00273213
0.00268359
0.00265114
0.00263021
0.00260742
0.00258192
0.00264641
0.00448076
0.00476029
0.00467191
0.00443155
0.00415517
0.00387592
0.00361508
0.00339958
0.00323331
0.00311323
0.00304511
0.00305361
0.00310426
0.00335915
0.00366464
0.0039828
0.00418128
0.00439238
0.00453531
0.0044504
0.00431882
0.00420106
0.00409563
0.00401784
0.00396347
0.00392619
0.0039022
0.00387841
0.00386679
0.00397769
0.00572879
0.00605196
0.00596877
0.00570069
0.0053793
0.00504711
0.00473256
0.00446919
0.00426546
0.00411618
0.00403617
0.00403767
0.00409729
0.0043887
0.00471833
0.00506109
0.00527762
0.00550962
0.00569675
0.00563565
0.00551127
0.00540003
0.00530147
0.00522777
0.00517338
0.00513271
0.00510328
0.00508728
0.0050903
0.00524446
0.00684744
0.0072011
0.00710653
0.0068189
0.00647519
0.00611157
0.00576198
0.00546625
0.00523685
0.00506504
0.00497987
0.00497283
0.00504094
0.00534948
0.00568377
0.00603108
0.00625869
0.00650197
0.00672524
0.00669994
0.00659776
0.00650508
0.00642293
0.00635829
0.00630431
0.00626472
0.00624259
0.00624058
0.00626124
0.00644584
0.00787428
0.00822208
0.00811653
0.00782205
0.00745414
0.00706811
0.00669968
0.00638592
0.00614317
0.00596005
0.00587484
0.00585664
0.00592665
0.00623699
0.006564
0.00690428
0.00713942
0.00738838
0.00763988
0.00765678
0.00758581
0.00751851
0.00745722
0.00740233
0.00736146
0.00733757
0.00732848
0.00734051
0.00737992
0.00758965
0.0088335
0.00911426
0.00897441
0.0086749
0.00831014
0.00792142
0.00754573
0.00722478
0.00697802
0.00678941
0.00670748
0.00668155
0.00674588
0.007047
0.00735924
0.00768625
0.00792749
0.00817832
0.00844993
0.00851134
0.008476
0.00843739
0.008397
0.00837428
0.00835758
0.00835046
0.0083601
0.00838646
0.00842597
0.00861615
0.00967584
0.0098759
0.0097102
0.00941412
0.00905765
0.00867379
0.00829968
0.00797947
0.00773425
0.00753857
0.00745234
0.00743591
0.00749854
0.00777528
0.00806833
0.00837906
0.008626
0.00887573
0.00915965
0.00926462
0.00926579
0.00925726
0.00926329
0.00927381
0.00928484
0.00928597
0.00928164
0.00929431
0.00932067
0.00948942
0.0103986
0.0105169
0.0103374
0.0100503
0.00970436
0.00932836
0.00896185
0.00864776
0.00840926
0.00821091
0.00811526
0.00809774
0.0081821
0.00841739
0.00869001
0.00898312
0.00923488
0.00948283
0.00977102
0.00991569
0.00995411
0.00999511
0.0100452
0.0100734
0.0100708
0.0100589
0.0100479
0.0100558
0.0100948
0.0102446
0.011011
0.0110519
0.0108686
0.0105917
0.0102538
0.0098888
0.00953429
0.00922996
0.00900111
0.00880263
0.00869928
0.00867117
0.00877062
0.00897849
0.00922318
0.00949788
0.00975238
0.0100006
0.0102852
0.0104665
0.0105509
0.010639
0.01069
0.0107087
0.0107058
0.0106962
0.0106947
0.0107138
0.0107608
0.0108868
0.0115176
0.0114947
0.0113125
0.0110404
0.0107115
0.0103594
0.0100196
0.00972751
0.0095087
0.00931108
0.00920219
0.00916504
0.00926004
0.0094522
0.00966611
0.00992171
0.0101762
0.0104283
0.0107022
0.0109161
0.0110521
0.0111424
0.0111937
0.0112228
0.0112315
0.0112331
0.0112425
0.0112711
0.0113225
0.0114229
0.0119198
0.0118579
0.0116699
0.011401
0.0110816
0.0107439
0.0104201
0.0101412
0.00993231
0.00973511
0.00962132
0.00957704
0.00966121
0.00982292
0.0100143
0.0102499
0.0105033
0.010762
0.0110219
0.0112698
0.0114279
0.0115237
0.0115929
0.0116373
0.0116579
0.0116718
0.0116928
0.0117304
0.011784
0.011859
0.0122276
0.0121375
0.0119425
0.0116764
0.0113672
0.0110446
0.0107375
0.0104716
0.0102721
0.0100729
0.00995292
0.00990146
0.00996694
0.0100969
0.0102612
0.0104771
0.0107281
0.0109935
0.0112446
0.0115067
0.0116857
0.0118047
0.0118938
0.0119517
0.0119865
0.012014
0.0120475
0.012094
0.0121484
0.0121994
0.0124445
0.0123323
0.0121303
0.0118674
0.0115696
0.0112629
0.0109725
0.0107183
0.0105266
0.0103201
0.0101897
0.0101302
0.0101685
0.0102624
0.0103944
0.0105869
0.0108363
0.0111146
0.0113592
0.0116283
0.0118391
0.0119834
0.012092
0.0121661
0.0122178
0.0122609
0.0123077
0.0123634
0.0124183
0.012447
0.0125722
0.0124404
0.0122317
0.0119732
0.0116884
0.0113981
0.0111242
0.0108785
0.0106858
0.01047
0.0103303
0.0102595
0.0102639
0.0103181
0.010414
0.010579
0.0108224
0.0111053
0.0113542
0.0116336
0.0118771
0.0120497
0.0121824
0.012278
0.0123506
0.0124122
0.012474
0.0125398
0.0125958
0.0126048
0.0126112
0.0124578
0.0122418
0.0119893
0.0117211
0.0114463
0.0111822
0.010943
0.0107473
0.0105213
0.0103743
0.0102853
0.0102518
0.0102636
0.0103203
0.0104539
0.0106857
0.0109656
0.011222
0.011508
0.0117795
0.0119903
0.0121575
0.0122817
0.0123809
0.0124665
0.012546
0.0126238
0.0126833
0.012678
0.0125613
0.0123867
0.0121656
0.0119129
0.011653
0.0113952
0.0111428
0.0109112
0.0107083
0.0104727
0.0103195
0.0102048
0.0101315
0.0100989
0.0101144
0.0102132
0.0104267
0.0106988
0.0109596
0.0112528
0.0115427
0.0117899
0.0119975
0.0121622
0.0122993
0.0124192
0.0125224
0.0126165
0.0126835
0.0126796
0.0124415
0.012237
0.0120028
0.0117495
0.0114939
0.0112455
0.0110057
0.0107804
0.0105663
0.0103226
0.0101608
0.0100178
0.00990259
0.00982501
0.00979859
0.00986065
0.0100598
0.0103124
0.010574
0.010872
0.011167
0.0114486
0.0116996
0.0119083
0.0120863
0.0122415
0.0123793
0.0124967
0.0125731
0.0125908
0.0122195
0.0119932
0.0117463
0.0114923
0.0112427
0.0110001
0.0107705
0.0105454
0.0103185
0.0100688
0.00989297
0.00972399
0.00956615
0.00944476
0.0093775
0.00940298
0.00957219
0.00980562
0.0100629
0.0103621
0.0106622
0.010961
0.0112341
0.0114852
0.0117015
0.0118874
0.0120486
0.0121846
0.0122843
0.0123399
0.0118527
0.011612
0.0113719
0.0111314
0.01089
0.010657
0.0104307
0.0102022
0.0099625
0.00970761
0.00951315
0.00932204
0.00912491
0.00896377
0.00885891
0.0088494
0.00898479
0.00919381
0.00944184
0.00973399
0.0100402
0.0103526
0.0106519
0.0109299
0.0111764
0.0113925
0.0115842
0.0117505
0.0118793
0.0119705
0.0113255
0.0110897
0.0108745
0.0106571
0.0104275
0.0102051
0.00998045
0.00974724
0.00949611
0.00923664
0.00902038
0.00881166
0.00858612
0.00839124
0.00825473
0.00821424
0.00831413
0.00849554
0.00872697
0.00900426
0.00931187
0.00963104
0.00995495
0.0102564
0.010529
0.0107709
0.0109895
0.0111845
0.0113436
0.0114635
0.0106513
0.0104523
0.0102655
0.0100627
0.00985232
0.00963908
0.00941616
0.00917835
0.00891887
0.00865582
0.00841875
0.00819743
0.00795947
0.00774144
0.00758208
0.00751616
0.00758183
0.00774376
0.00795781
0.0082059
0.00849481
0.00881635
0.0091481
0.00946953
0.00975745
0.0100161
0.010254
0.0104751
0.0106624
0.0108049
0.00986276
0.00970664
0.00953367
0.00935184
0.00916036
0.00895745
0.00873735
0.00849653
0.00823551
0.00797167
0.0077227
0.00749324
0.00725797
0.00703629
0.00686502
0.00677985
0.00683806
0.00699456
0.00718575
0.00740054
0.00764721
0.0079324
0.00825831
0.00858269
0.00887824
0.00915006
0.00939197
0.00961543
0.00982078
0.00998553
0.00894515
0.00883281
0.00868125
0.00852694
0.00835622
0.00816555
0.00795211
0.00771537
0.00746026
0.00720376
0.00695767
0.00673213
0.00651162
0.00630341
0.00613643
0.00606886
0.0061408
0.00628847
0.00645538
0.00663506
0.00683498
0.00706176
0.00732387
0.00763475
0.00793604
0.00821428
0.00845762
0.00867575
0.00886946
0.00902679
0.0079336
0.00784496
0.00773001
0.00760357
0.00745522
0.00728277
0.00708555
0.00686539
0.00662983
0.00639508
0.00617054
0.00596571
0.00577174
0.00558537
0.00547239
0.00544326
0.00552961
0.00566917
0.00581286
0.0059583
0.00611075
0.00627727
0.00646552
0.00668079
0.00694319
0.00721282
0.00744098
0.0076523
0.00783401
0.00797701
0.00685008
0.00679561
0.00671959
0.00662541
0.00650699
0.00636468
0.00619962
0.00601421
0.00581488
0.00561795
0.00543221
0.00526035
0.00509485
0.00498652
0.00492966
0.00493886
0.00503624
0.00517156
0.00529534
0.00541104
0.00551907
0.00562731
0.00574703
0.00587894
0.00603014
0.00620056
0.00639273
0.00658894
0.0067414
0.00686132
0.0057813
0.00577465
0.00574719
0.00569193
0.00561155
0.00551071
0.00539143
0.00525434
0.00509706
0.00494136
0.00479763
0.00468666
0.00459333
0.00452951
0.00452011
0.00456645
0.0046827
0.00481879
0.00493273
0.00502663
0.00509949
0.0051487
0.00519901
0.00526194
0.00533597
0.00540688
0.00548076
0.00556397
0.00566287
0.00576367
0.00487171
0.00486529
0.00485901
0.00484039
0.00480159
0.00474633
0.00467801
0.00460162
0.00451256
0.00441671
0.00433137
0.00426633
0.00421683
0.00420212
0.00424541
0.00434967
0.00450783
0.00466795
0.00480039
0.00489022
0.00493062
0.00492253
0.00489382
0.00486708
0.00485525
0.00484967
0.00485131
0.00485683
0.00486044
0.00487507
0.00434672
0.00430133
0.00427099
0.0042448
0.00421812
0.00419003
0.00415986
0.00412431
0.00408323
0.00404478
0.00401532
0.00400454
0.00401865
0.00408467
0.00421508
0.00442561
0.00466798