/*--------------------------------*- C++ -*----------------------------------*\
| =========                 |                                                 |
| \\      /  F ield         | OpenFOAM: The Open Source CFD Toolbox           |
|  \\    /   O peration     | Version:  5.0                                   |
|   \\  /    A nd           | Web:      www.OpenFOAM.org                      |
|    \\/     M anipulation  |                                                 |
\*---------------------------------------------------------------------------*/
FoamFile
{
    version     2.0;
    format      ascii;
    class       volScalarField;
    location    "300/air";
    object      epsilon;
}
// * * * * * * * * * * * * * * * * * * * * * * * * * * * * * * * * * * * * * //

dimensions      [0 2 -3 0 0 0 0];

internalField   nonuniform List<scalar> 
243000
(
4.10384
4.73853
5.07168
5.21268
5.20635
5.07677
4.83434
4.5035
4.09447
3.66043
3.22343
2.82327
2.43067
3.65881
7.21618
10.5679
13.3282
15.2593
15.4751
14.082
11.9745
10.0997
8.39054
6.91274
5.67565
4.66076
3.88662
3.30001
3.07172
2.96256
2.90859
3.00964
2.96901
2.85692
2.71187
2.54017
2.34524
2.13881
1.92339
1.72004
1.52864
1.37694
1.2581
1.99643
3.41322
4.76757
5.9001
6.75863
6.96875
6.48449
5.68698
4.96637
4.28785
3.69666
3.18764
2.76437
2.44012
2.20014
2.12005
2.11954
4.05373
4.17229
4.09963
3.93815
3.7364
3.50229
3.24051
2.96679
2.68486
2.42156
2.1753
1.98757
1.88054
2.99655
4.76889
6.46635
7.88019
8.94362
9.2441
8.69221
7.71406
6.80771
5.94631
5.18667
4.52686
3.97667
3.5538
3.24745
3.14025
3.1657
4.99715
5.13385
5.0493
4.86377
4.62742
4.35071
4.04059
3.71617
3.38289
3.07116
2.77935
2.56425
2.49932
3.92402
5.90381
7.79615
9.37017
10.5324
10.8956
10.3483
9.28439
8.27345
7.30281
6.4356
5.67535
5.03976
4.54941
4.20084
4.07182
4.12401
5.80336
5.95306
5.86626
5.66912
5.41075
5.10375
4.7577
4.39442
4.02089
3.66896
3.33919
3.10304
3.10836
4.7629
6.84781
8.83327
10.4837
11.6797
12.0854
11.5867
10.5019
9.44446
8.41693
7.48657
6.66388
5.97378
5.4397
5.06517
4.91891
4.99173
6.51765
6.67619
6.58981
6.38535
6.11018
5.77914
5.40444
5.0098
4.60321
4.21646
3.85395
3.60128
3.70162
5.50599
7.62943
9.64115
11.3131
12.5086
12.9421
12.5165
11.4553
10.3921
9.34435
8.38272
7.52566
6.80395
6.24339
5.85413
5.69503
5.78185
7.17322
7.3356
7.24728
7.03503
6.7441
6.39121
5.99126
5.56926
5.13357
4.71491
4.32286
4.05717
4.26682
6.15628
8.27309
10.2687
11.9281
13.108
13.56
13.2194
12.2121
11.1718
10.1301
9.16102
8.29035
7.5539
6.97989
6.58372
6.41572
6.51126
7.79222
7.95225
7.85747
7.63423
7.32571
6.9504
6.5259
6.07788
5.6147
5.16503
4.74465
4.46843
4.79187
6.71951
8.79808
10.752
12.3793
13.5383
14.0039
13.7523
12.8218
11.8236
10.8075
9.84945
8.98078
8.24252
7.66484
7.26691
7.09356
7.19343
8.38702
8.53834
8.43195
8.19322
7.86354
7.46358
7.01337
6.53897
6.04794
5.56671
5.1175
4.83278
5.26884
7.19964
9.21884
11.1164
12.7019
13.8396
14.3175
14.1553
13.3163
12.3747
11.3997
10.4666
9.61225
8.88154
8.30771
7.91286
7.73775
7.83936
8.96328
9.0995
8.97636
8.71717
8.36197
7.93407
7.4561
6.95383
6.43351
5.9189
5.43942
5.14915
5.69235
7.59877
9.54558
11.3789
12.9182
14.0361
14.5283
14.4528
13.7152
12.8419
11.9194
11.022
10.1912
9.47657
8.91394
8.5272
8.35503
8.45748
9.5219
9.63606
9.49121
9.20652
8.82138
8.36217
7.85409
7.32199
6.77044
6.22096
5.70981
5.41897
6.05343
7.91781
9.78474
11.5503
13.0405
14.1407
14.6515
14.6579
14.0288
13.2322
12.3703
11.5172
10.7192
10.0291
9.48516
9.11267
8.94862
9.0514
10.0582
10.1436
9.97234
9.65762
9.23872
8.74545
8.20524
7.64133
7.05652
6.47214
5.92897
5.64018
6.34793
8.15688
9.94006
11.6361
13.0787
14.166
14.6934
14.7756
14.259
13.5456
12.7505
11.9499
11.1937
10.5369
10.0199
9.66797
9.51689
9.61949
10.5623
10.613
10.4116
10.0634
9.60807
9.07912
8.50534
7.9083
7.28864
6.66741
6.0926
5.81403
6.57806
8.31731
10.0153
11.6421
13.0409
14.114
14.6594
14.8077
14.4037
13.7773
13.0553
12.3146
11.609
10.9941
10.512
10.187
10.0531
10.1547
11.0199
11.0315
10.7974
10.4137
9.92104
9.35573
8.7475
8.11555
7.4589
6.80195
6.21019
5.99307
6.79175
8.41305
10.0144
11.5682
12.9179
13.9766
14.5407
14.7512
14.4522
13.9231
13.2785
12.6036
11.9556
11.3907
10.9512
10.6589
10.5457
10.6451
11.4131
11.3835
11.1157
10.6957
10.1654
9.56482
8.92409
8.2601
7.57083
6.89229
6.34035
6.17659
6.99384
8.51087
10.0018
11.4472
12.7245
13.7601
14.3379
14.6027
14.3967
13.9633
13.4084
12.8083
12.223
11.714
11.3238
11.0693
10.9792
11.0746
11.7221
11.6513
11.3497
10.8949
10.3321
9.70163
9.03233
8.34409
7.64362
6.9934
6.47664
6.36001
7.18188
8.60396
9.99709
11.3503
12.5499
13.5142
14.0696
14.3684
14.2409
13.895
13.4237
12.9113
12.4
11.9502
11.6137
11.4011
11.3353
11.4246
11.9274
11.8161
11.4843
11.0019
10.4135
9.76316
9.07632
8.40107
7.72447
7.09855
6.6133
6.53909
7.35294
8.68779
9.9931
11.2662
12.396
13.3023
13.8411
14.1313
14.0301
13.7324
13.3357
12.8966
12.4656
12.0881
11.8051
11.636
11.5942
11.6753
12.0128
11.8669
11.5154
11.0162
10.4191
9.78613
9.12013
8.46142
7.80576
7.20201
6.74569
6.70996
7.50542
8.75774
9.98377
11.1847
12.2514
13.1098
13.6348
13.918
13.8425
13.5904
13.2281
12.8218
12.4239
12.1099
11.8874
11.758
11.7371
11.8088
11.9699
11.7974
11.4666
10.9954
10.4219
9.80598
9.15959
8.5174
7.8816
7.29932
6.87006
6.86916
7.63795
8.80876
9.96425
11.0978
12.107
12.9246
13.4367
13.7145
13.6629
13.451
13.1235
12.7503
12.3869
12.0904
11.8743
11.7581
11.7508
11.8138
11.8711
11.7196
11.4111
10.9637
10.4135
9.81521
9.18875
8.56397
7.94779
7.38725
6.98382
7.01331
7.74854
8.83733
9.9287
10.9984
11.9546
12.7359
13.2347
13.5082
13.4788
13.3021
13.0104
12.669
12.3383
12.0601
11.8524
11.7352
11.7037
11.7262
11.7631
11.6217
11.3347
10.9111
10.3857
9.80917
9.20306
8.59701
8.00109
7.46319
7.08487
7.13928
7.83548
8.83868
9.87038
10.8804
11.787
12.5339
13.0189
13.2889
13.2796
13.1342
12.878
12.5696
12.2675
12.0076
11.8092
11.6908
11.6386
11.6289
11.6269
11.491
11.2259
10.8289
10.3325
9.78148
9.19989
8.61317
8.0391
7.52503
7.17135
7.24435
7.89528
8.81608
9.78398
10.7381
11.5976
12.3102
12.7812
13.0475
13.0567
12.9394
12.7171
12.4427
12.1685
11.9251
11.7354
11.613
11.5413
11.5055
11.4499
11.3193
11.0755
10.711
10.2484
9.72705
9.17317
8.6116
8.06033
7.57134
7.24184
7.32623
7.9251
8.76852
9.66863
10.565
11.3805
12.0583
12.514
12.7755
12.8019
12.7106
12.5209
12.279
12.0314
11.8039
11.6209
11.4921
11.4013
11.3419
11.2228
11.1002
10.8813
10.5508
10.1277
9.64182
9.12061
8.58831
8.06465
7.60163
7.2958
7.38427
7.92358
8.69252
9.52338
10.3579
11.1306
11.7736
12.2114
12.4659
12.5077
12.4409
12.2824
12.0718
11.8485
11.6363
11.4577
11.32
11.2095
11.1275
10.9383
10.8289
10.64
10.3473
9.96565
9.5224
9.04038
8.54262
8.05157
7.61822
7.33548
7.42014
7.89957
8.59122
9.35106
10.1216
10.8462
11.4542
11.8704
12.1145
12.1689
12.1251
11.9977
11.8176
11.6175
11.4182
11.2403
11.0898
10.9579
10.8541
10.5923
10.503
10.3502
10.1001
9.76594
9.36963
8.93449
8.47874
8.02866
7.63323
7.37423
7.44906
7.86996
8.48324
9.16949
9.8722
10.5409
11.1103
11.498
11.7261
11.7883
11.7636
11.6651
11.5144
11.3363
11.1479
10.9677
10.8015
10.6446
10.5161
10.1928
10.1322
10.0238
9.825
9.54793
9.20779
8.83464
8.4401
8.04498
7.69324
7.47205
7.5379
7.90274
8.4415
9.05081
9.67722
10.2763
10.7934
11.1381
11.3391
11.3994
11.3847
11.3073
11.1801
11.0193
10.8381
10.6515
10.4653
10.28
10.1254
9.80562
9.79451
9.75193
9.63094
9.44063
9.19789
8.91735
8.61831
8.31493
8.04707
7.88662
7.95971
8.28242
8.753
9.27461
9.80256
10.301
10.7224
10.9892
11.1331
11.169
11.1439
11.0652
10.9418
10.779
10.5876
10.3805
10.1618
9.93699
9.74621
10.1175
10.2249
10.3205
10.3573
10.3429
10.2928
10.214
10.1047
9.96785
9.84169
9.77811
9.87552
10.1513
10.5252
10.915
11.2862
11.5976
11.8321
11.9522
11.9903
11.9598
11.8815
11.7596
11.5963
11.393
11.1536
10.891
10.6058
10.3118
10.0598
16.5494
16.8569
17.1445
17.3952
17.6055
17.7846
17.9228
17.9347
17.8218
17.6568
17.4755
17.3495
17.3121
17.3331
17.3375
17.3932
17.3864
17.2961
17.2068
17.2025
17.2574
17.3438
17.424
17.4711
17.4719
17.4047
17.2679
17.0468
16.7723
16.4986
9.13091
10.4711
11.0462
11.2195
11.0659
10.6444
9.98246
9.17378
8.27171
7.49429
6.95967
7.14697
8.3175
12.2089
18.1875
25.0652
31.0285
35.7248
36.3152
32.698
28.1124
23.8163
19.9478
16.6564
13.9306
11.7048
9.96406
8.55072
7.67695
7.12012
6.01144
6.28294
6.58425
6.77166
6.80227
6.68937
6.45025
6.12304
5.75396
5.4615
5.34874
5.73607
6.87578
9.42573
12.8067
16.3835
19.4027
21.6352
21.9251
20.0857
17.7075
15.3787
13.241
11.3676
9.77532
8.43831
7.37377
6.49653
5.99988
5.70326
5.5798
5.51603
5.67474
5.83275
5.9165
5.90617
5.80454
5.63496
5.43083
5.28738
5.30464
5.7596
6.9163
9.02289
11.6183
14.2342
16.4272
17.9787
18.1425
16.8316
15.0979
13.3442
11.7029
10.234
8.96425
7.88835
7.01631
6.28723
5.8749
5.63161
5.44669
5.26408
5.35271
5.481
5.57764
5.61063
5.57816
5.4926
5.37866
5.31812
5.40507
5.90431
7.02906
8.82037
10.9492
13.0255
14.7571
15.9401
16.0294
15.0259
13.6556
12.2342
10.8816
9.6541
8.58479
7.65216
6.88226
6.23771
5.8471
5.60676
5.41466
5.19703
5.24434
5.34807
5.43977
5.48886
5.49246
5.4557
5.39974
5.38749
5.51834
6.03729
7.0789
8.63238
10.4253
12.1326
13.5462
14.4869
14.5316
13.7449
12.6258
11.4418
10.2981
9.25015
8.32152
7.49351
6.79737
6.21219
5.82631
5.58034
5.43471
5.22938
5.23865
5.32505
5.40897
5.45881
5.47691
5.46734
5.44456
5.46176
5.61961
6.14124
7.07579
8.44134
9.97607
11.4136
12.5934
13.3668
13.3894
12.7659
11.8367
10.8364
9.85706
8.95363
8.12605
7.37799
6.73701
6.19448
5.8104
5.56025
5.49516
5.32201
5.31846
5.38494
5.44991
5.48966
5.50772
5.50857
5.50148
5.53359
5.70521
6.21096
7.04666
8.25414
9.58679
10.8232
11.8293
12.4876
12.505
12.0105
11.2331
10.3811
9.53701
8.73858
7.98849
7.30145
6.70238
6.18918
5.80873
5.55729
5.59426
5.46601
5.45896
5.50506
5.54518
5.56604
5.57352
5.57215
5.56779
5.60309
5.77754
6.25318
7.00145
8.07968
9.25413
10.3404
11.2182
11.7994
11.8256
11.4369
10.7854
10.0565
9.32043
8.59483
7.90497
7.2642
6.69643
6.21833
5.84905
5.60731
5.73608
5.65537
5.64705
5.6706
5.68204
5.67818
5.6673
5.65404
5.64251
5.67093
5.83909
6.27443
6.945
7.92482
8.97572
9.95011
10.7348
11.2659
11.3122
11.0125
10.469
9.84415
9.18029
8.51496
7.87056
7.27456
6.74761
6.2988
5.94569
5.72899
5.93217
5.88324
5.87076
5.86875
5.85001
5.81812
5.78301
5.75048
5.72449
5.73669
5.88996
6.2761
6.90729
7.79334
8.74804
9.63939
10.3585
10.8566
10.9323
10.7083
10.2593
9.71115
9.10632
8.48953
7.90202
7.35363
6.85841
6.43432
6.10119
5.89957
6.1681
6.13855
6.11707
6.08914
6.0395
5.97723
5.91408
5.85734
5.81161
5.79779
5.92649
6.27746
6.87412
7.68643
8.56696
9.39686
10.0709
10.5473
10.6576
10.4992
10.1299
9.63919
9.08779
8.53792
8.00072
7.48896
7.02116
6.61955
6.29783
6.11168
6.42974
6.40885
6.37438
6.32047
6.24015
6.14678
6.05378
5.97014
5.90184
5.87039
5.97598
6.30521
6.84757
7.60585
8.42958
9.21399
9.85696
10.3192
10.4645
10.3621
10.0546
9.61614
9.13556
8.64038
8.14386
7.6636
7.2197
6.83381
6.52644
6.35461
6.70251
6.68113
6.63098
6.55168
6.44196
6.31827
6.19541
6.08433
5.99292
5.94598
6.03277
6.33111
6.83129
7.55519
8.3369
9.08737
9.70772
10.1593
10.3351
10.2793
10.0192
9.64535
9.22116
8.77071
8.3092
7.85668
7.43434
7.06615
6.77474
6.6149
6.97165
6.9429
6.8758
6.77277
6.63597
6.4841
6.33314
6.19634
6.08372
6.02194
6.08993
6.36582
6.84152
7.53587
8.29887
9.02253
9.62212
10.0624
10.2587
10.2404
10.022
9.70344
9.32239
8.90894
8.47846
8.05248
7.65293
7.30387
7.02902
6.87803
7.2238
7.18341
7.09966
6.97568
6.81532
6.63897
6.46383
6.30585
6.17732
6.10705
6.16185
6.42639
6.90126
7.58368
8.33363
9.04029
9.62389
10.0448
10.2408
10.2459
10.0618
9.77756
9.42803
9.04393
8.6415
8.24052
7.86379
7.5344
7.27565
7.12988
7.44865
7.39533
7.29675
7.15561
6.97681
6.78204
6.58957
6.4196
6.28544
6.21143
6.25513
6.51762
7.00521
7.69326
8.44492
9.14585
9.71536
10.1127
10.2999
10.3105
10.1375
9.8685
9.53766
9.17341
8.79291
8.41384
8.05781
7.74716
7.50287
7.35861
7.64045
7.57605
7.4664
7.31391
7.12419
6.92123
6.72259
6.55027
6.41621
6.34048
6.37777
6.64848
7.1609
7.86906
8.63542
9.33992
9.90301
10.2791
10.4573
10.4609
10.279
10.0001
9.6664
9.30616
8.9354
8.57128
8.23141
7.93604
7.70294
7.55642
7.80066
7.73019
7.61683
7.46325
7.27438
7.07426
6.87857
6.70819
6.57677
6.5023
6.54022
6.82871
7.3774
8.11786
8.90998
9.62627
10.1879
10.5456
10.7152
10.7067
10.5058
10.2042
9.84968
9.47259
9.0892
8.72355
8.39027
8.1027
7.87489
7.72232
7.94418
7.87774
7.77399
7.62953
7.44946
7.25633
7.06786
6.90385
6.77847
6.70869
6.75544
7.07059
7.66585
8.44877
9.27594
10.0107
10.5743
10.9182
11.0792
11.0553
10.828
10.4926
10.1045
9.69777
9.29185
8.90722
8.5604
8.26456
8.03087
7.86664
8.11063
8.05624
7.96358
7.83035
7.66273
7.48169
7.30563
7.15284
7.03729
6.97621
7.04002
7.39017
8.0407
8.87425
9.74395
10.5022
11.07
11.4054
11.5581
11.5177
11.2598
10.8825
10.45
10.0012
9.56041
9.1458
8.77483
8.46025
8.2079
8.02338
8.32455
8.28051
8.20128
8.08339
7.9335
7.77071
7.61269
7.47631
7.37542
7.32811
7.41736
7.80966
8.52246
9.4127
10.3304
11.1152
11.6889
12.0191
12.166
12.1103
11.8201
11.3961
10.9109
10.4089
9.92094
9.46522
9.05755
8.71216
8.43251
8.22431
8.60628
8.57152
8.50937
8.41303
8.28827
8.15145
8.01846
7.90505
7.82561
7.79931
7.92305
8.36377
9.14384
10.0952
11.0638
11.8752
12.4541
12.7809
12.9247
12.8558
12.5351
12.0631
11.5194
10.9548
10.4077
9.89791
9.44153
9.05082
8.73148
8.49183
8.98643
8.96044
8.9212
8.8556
8.76589
8.66542
8.5682
8.48845
8.44056
8.44762
8.61671
9.1133
9.96315
10.9795
11.9996
12.8325
13.4094
13.7302
13.87
13.7898
13.4439
12.9268
12.3217
11.6862
11.0673
10.4886
9.96834
9.51777
9.1431
8.85942
9.50951
9.49423
9.48802
9.46737
9.42914
9.3832
9.34068
9.31349
9.31558
9.37891
9.60969
10.1759
11.0957
12.1822
13.2523
14.091
14.6447
14.9496
15.0769
14.979
14.6113
14.059
13.3939
12.6796
11.9732
11.3056
10.7007
10.1691
9.71965
9.37503
10.2483
10.2521
10.303
10.3555
10.4003
10.443
10.4917
10.5555
10.65
10.8064
11.131
11.7928
12.7941
13.9507
15.0637
15.8668
16.3626
16.6261
16.7158
16.5767
16.1787
15.5954
14.8803
14.0799
13.2646
12.4761
11.7517
11.1035
10.5476
10.1163
11.3606
11.4176
11.5741
11.7591
11.9543
12.1579
12.376
12.6141
12.8808
13.2044
13.6873
14.4966
15.6088
16.8146
17.9296
18.6194
18.9914
19.1628
19.1544
18.9238
18.4696
17.8436
17.0758
16.189
15.2379
14.2762
13.3693
12.5375
11.8132
11.2467
13.3138
13.509
13.8807
14.3256
14.8108
15.3244
15.8712
16.447
17.0345
17.6551
18.3986
19.4151
20.6385
21.7944
22.7426
23.1616
23.2784
23.263
23.0483
22.6715
22.1483
21.4833
20.6583
19.6728
18.5626
17.375
16.1875
15.0529
14.0423
13.2386
17.375
17.9287
18.764
19.7255
20.7578
21.8308
22.9517
24.0734
25.1303
26.126
27.108
28.1793
29.2201
29.9108
30.0782
29.7286
29.2356
28.7747
28.2144
27.751
27.4004
27.0359
26.4809
25.628
24.4545
23.0691
21.5771
20.0493
18.5868
17.3591
26.3046
27.766
29.413
31.0845
32.7571
34.391
35.9757
37.3493
38.3005
38.8836
39.0864
38.9916
38.4571
37.3213
35.3749
33.4026
31.8854
30.6894
29.725
29.3322
29.5068
30.0894
30.7923
31.2812
31.2668
30.8342
30.0094
28.8321
27.4473
26.174
31.4897
34.1059
36.5
38.5129
40.1662
41.4322
42.2631
42.5446
42.0261
40.9193
39.3178
37.3478
34.9839
32.3874
29.7077
27.4371
25.754
24.4088
23.4397
23.1042
23.3494
24.0447
24.9956
26.1042
27.3077
28.4054
29.2829
29.88
30.2111
30.6863
13.7649
15.887
16.8667
17.2627
17.1528
16.6274
15.7505
14.7068
13.6047
12.8354
12.6218
14.1446
17.6011
24.6916
34.2134
45.018
54.2998
61.8192
61.8034
54.6983
46.5626
39.0773
32.5757
27.1793
22.7921
19.2426
16.4051
14.005
12.2536
11.0395
7.63511
8.08668
8.60917
8.9916
9.14158
9.09324
8.87545
8.55429
8.20023
7.99261
8.11412
9.16046
11.3424
15.0923
19.6017
24.2344
28.1033
30.8117
30.5425
27.5573
24.0871
20.7627
17.83
15.3233
13.2309
11.4794
10.0477
8.80553
8.00959
7.39837
6.6134
6.63842
6.93413
7.22776
7.40869
7.46709
7.4148
7.28352
7.12487
7.07819
7.31284
8.25778
10.0595
12.895
16.1386
19.3535
22.0676
23.7804
23.4572
21.4043
18.9914
16.6302
14.5122
12.6719
11.1106
9.78164
8.6847
7.73674
7.12969
6.68202
6.19152
6.08699
6.28236
6.51444
6.68947
6.78186
6.79835
6.75497
6.69303
6.7307
7.02923
7.90741
9.47405
11.7972
14.3715
16.8675
18.9785
20.1959
19.8789
18.3127
16.4256
14.5477
12.843
11.3476
10.0671
8.96796
8.05185
7.26547
6.72778
6.354
5.96834
5.85076
5.99583
6.18601
6.34155
6.43839
6.48223
6.484
6.47776
6.56518
6.90358
7.7276
9.10481
11.0662
13.1926
15.2196
16.9141
17.8256
17.5343
16.2901
14.7454
13.1852
11.7557
10.495
9.40914
8.47259
7.68424
6.9968
6.499
6.1587
5.90363
5.78803
5.90603
6.06557
6.19198
6.27647
6.32567
6.34687
6.37001
6.48792
6.84505
7.62149
8.8472
10.5338
12.3347
14.0261
15.4108
16.1201
15.8618
14.8537
13.5584
12.2314
11.0044
9.91824
8.97973
8.1587
7.44873
6.8284
6.35803
6.04439
5.93396
5.83963
5.93081
6.05784
6.16428
6.2335
6.27401
6.29768
6.3313
6.46108
6.82257
7.5589
8.66981
10.143
11.6989
13.1413
14.2906
14.8651
14.6422
13.8195
12.7182
11.5729
10.5028
9.55273
8.71236
7.96393
7.3096
6.74003
6.29239
5.99602
6.02877
5.9816
6.06324
6.16222
6.23275
6.27443
6.29831
6.31408
6.34684
6.47988
6.83624
7.53267
8.55863
9.86442
11.2334
12.4878
13.4579
13.9428
13.7583
13.0852
12.143
11.1446
10.2016
9.33409
8.5603
7.8682
7.25287
6.72157
6.30798
6.05015
6.20881
6.19798
6.2662
6.33293
6.3673
6.37896
6.38101
6.38271
6.40869
6.54455
6.89871
7.54387
8.4956
9.6785
10.9033
12.0136
12.8474
13.273
13.1287
12.5797
11.7732
10.8959
10.0293
9.22866
8.50535
7.86534
7.30627
6.82296
6.44485
6.21317
6.45918
6.46954
6.51767
6.54951
6.54851
6.53058
6.50839
6.4928
6.50765
6.6405
6.99265
7.60298
8.47175
9.57097
10.6823
11.6806
12.4106
12.7948
12.6914
12.2476
11.5574
10.7612
9.9614
9.23032
8.58272
7.99982
7.47945
7.02724
6.66112
6.44513
6.75702
6.77422
6.79673
6.79364
6.7613
6.71453
6.66748
6.63356
6.63559
6.76209
7.10748
7.69647
8.50273
9.52153
10.5511
11.4609
12.1114
12.462
12.3987
12.0413
11.4417
10.7167
10.0137
9.36399
8.76863
8.22217
7.72342
7.28663
6.93252
6.72842
7.0808
7.09057
7.08433
7.05108
6.9899
6.91663
6.8463
6.79482
6.78523
6.90435
7.24013
7.81151
8.58276
9.5282
10.4987
11.3378
11.9253
12.243
12.2167
11.9277
11.3974
10.7764
10.1571
9.56193
9.00412
8.48443
8.00494
7.58259
7.23997
7.04295
7.40838
7.39906
7.36646
7.30626
7.22019
7.12443
7.0345
6.96852
6.95017
7.06311
7.38984
7.94914
8.69732
9.60351
10.5255
11.3079
11.8406
12.1213
12.1244
11.8768
11.4298
10.896
10.3344
9.7842
9.26122
8.76605
8.30441
7.89549
7.56304
7.36776
7.71866
7.68618
7.62908
7.54623
7.44066
7.32816
7.2245
7.14939
7.12721
7.23783
7.56045
8.11623
8.85781
9.74677
10.6449
11.3813
11.8626
12.0974
12.113
11.8984
11.5169
11.0388
10.5242
10.0148
9.52187
9.04836
8.60296
8.20615
7.88192
7.68309
7.99664
7.94029
7.86206
7.76223
7.64405
7.52238
7.41335
7.33703
7.31948
7.43525
7.75953
8.32078
9.06748
9.95208
10.8367
11.5382
11.9841
12.1844
12.199
11.9937
11.6435
11.2009
10.7234
10.2436
9.77375
9.31729
8.8851
8.4981
8.1794
7.97206
8.23332
8.15536
8.06129
7.95174
7.82974
7.70858
7.6061
7.53889
7.53005
7.65675
7.9896
8.56507
9.32758
10.2185
11.0982
11.7711
12.1866
12.3605
12.3734
12.1772
11.8337
11.3987
10.9391
10.4725
10.0136
9.56626
9.14139
8.76009
8.44305
8.22286
8.42767
8.33327
8.23118
8.1213
8.00751
7.89882
7.8095
7.75703
7.76428
7.90825
8.25729
8.85578
9.64429
10.5505
11.4326
12.0804
12.4681
12.6214
12.6304
12.4368
12.0947
11.6608
11.1949
10.7188
10.2517
9.7998
9.37177
8.98891
8.66789
8.43096
8.58911
8.48666
8.38844
8.29006
8.19184
8.10221
8.03347
8.00167
8.03397
8.20158
8.575
9.20522
10.0299
10.9594
11.8502
12.4746
12.835
12.9704
12.9741
12.7791
12.4327
11.989
11.505
11.0082
10.5172
10.0398
9.58981
9.19312
8.85943
8.60188
8.74244
8.64308
8.55574
8.47572
8.40079
8.33743
8.29626
8.29192
8.35792
8.55647
8.96315
9.63276
10.5045
11.4643
12.3698
12.9699
13.302
13.4198
13.4168
13.218
12.8628
12.4014
11.8891
11.3588
10.8307
10.3137
9.82787
9.3986
9.03928
8.75613
8.917
8.82689
8.75817
8.70462
8.6612
8.63174
8.62494
8.65811
8.76531
9.00331
9.4531
10.1686
11.0991
12.0954
13.0206
13.5923
13.893
13.9916
13.98
13.776
13.4095
12.9253
12.3775
11.8021
11.2235
10.6534
10.1144
9.63449
9.23476
8.92133
9.14521
9.07063
9.02917
9.01209
9.00963
9.02324
9.06224
9.14311
9.3004
9.58804
10.0914
10.8608
11.8602
12.8986
13.8462
14.3795
14.6456
14.7192
14.697
14.4866
14.1077
13.5995
13.0128
12.3833
11.7416
11.1045
10.4957
9.946
9.48495
9.12922
9.47307
9.41909
9.41448
9.44762
9.50034
9.57099
9.6691
9.81112
10.0312
10.3817
10.9511
11.7854
12.859
13.9439
14.9127
15.3907
15.6128
15.6511
15.6148
15.3961
15.0064
14.4759
13.8501
13.1623
12.4475
11.7291
11.0328
10.3931
9.84786
9.43141
9.96817
9.9372
9.98834
10.0895
10.2153
10.3619
10.5394
10.7633
11.0659
11.4985
12.15
13.0632
14.2106
15.3406
16.3206
16.7152
16.8727
16.8415
16.7713
16.5529
16.1727
15.6258
14.9647
14.2202
13.4251
12.611
11.8107
11.0585
10.4054
9.90473
10.7344
10.7349
10.8662
11.0607
11.2875
11.5403
11.8296
12.1683
12.5853
13.129
13.8835
14.8885
16.1103
17.2587
18.2247
18.4825
18.4845
18.3204
18.1933
17.9707
17.6373
17.1458
16.4651
15.6724
14.7958
13.8736
12.9509
12.0644
11.2726
10.6581
11.9394
12.0037
12.2509
12.581
12.9553
13.364
13.8179
14.324
14.9043
15.5979
16.4771
17.5838
18.861
19.9714
20.8341
20.7604
20.4732
20.122
19.8964
19.6612
19.3987
19.0355
18.4917
17.6892
16.7472
15.7068
14.6452
13.5956
12.6342
11.8673
13.9028
14.0957
14.5288
15.0701
15.6699
16.3145
17.0128
17.7621
18.5655
19.4458
20.4562
21.6435
22.8917
23.8012
24.1757
23.5005
22.7892
22.1686
21.7866
21.5297
21.377
21.219
20.9359
20.4144
19.5433
18.4183
17.2168
15.9676
14.7996
13.8455
17.2376
17.6919
18.434
19.313
20.2581
21.2479
22.2811
23.3428
24.4004
25.4487
26.4972
27.5614
28.4509
28.455
27.8718
26.3106
25.0459
24.0768
23.4836
23.2035
23.2116
23.36
23.4854
23.4386
23.0609
22.312
21.1437
19.7495
18.3866
17.2056
22.9932
23.9512
25.1862
26.5476
27.934
29.3078
30.6458
31.8905
32.96
33.8058
34.354
34.4154
33.8897
32.5379
30.5895
28.0078
26.1406
24.8259
24.032
23.7429
23.9332
24.4767
25.1434
25.7359
26.0626
26.1012
25.7891
25.1141
24.0305
22.9178
29.2061
31.2627
33.3639
35.3073
37.0407
38.5216
39.7078
40.461
40.5464
40.1198
39.1134
37.5896
35.4892
32.7258
29.5778
26.3678
24.1813
22.7193
21.8258
21.5477
21.8577
22.6428
23.7105
24.8898
25.9924
26.935
27.6335
28.0413
28.2419
28.5092
26.3252
28.724
31.0944
33.2146
34.9553
36.2403
37.0019
37.1748
36.5895
35.3699
33.5804
31.3516
28.6959
25.7171
22.7186
20.0591
18.2899
17.0949
16.3558
16.0978
16.2842
16.842
17.6616
18.6752
19.8323
21.0273
22.1709
23.2064
24.1499
25.3399
18.2577
21.1743
22.5682
23.2603
23.2982
22.7752
21.788
20.615
19.3975
18.6247
18.6105
21.2973
27.1126
37.9421
51.8788
67.625
81.4981
93.131
91.4752
79.148
65.9236
54.2306
44.5989
36.8479
30.7243
25.9325
22.1454
18.8986
16.3536
14.4566
9.10941
9.71117
10.4148
10.9672
11.2293
11.2457
11.0485
10.7235
10.358
10.171
10.4086
11.8895
15.0338
20.0968
26.1294
32.3938
37.8461
41.7089
40.5188
35.7218
30.5279
25.7758
21.7991
18.5148
15.872
13.754
12.0598
10.5765
9.60021
8.75358
7.53254
7.67804
8.10509
8.50036
8.74188
8.83183
8.78399
8.6386
8.46392
8.4405
8.79637
10.0426
12.5055
16.2097
20.5209
24.9138
28.7303
30.9893
29.9694
26.7489
23.1988
19.8748
17.0216
14.6395
12.7045
11.1292
9.85894
8.76305
8.04793
7.48979
6.88959
6.9191
7.22332
7.52958
7.73944
7.8412
7.84629
7.77676
7.69868
7.76987
8.20347
9.34873
11.4489
14.4836
17.949
21.4203
24.3953
25.909
25.0388
22.5634
19.7515
17.0724
14.7425
12.7888
11.1961
9.89589
8.84476
7.95228
7.34426
6.92093
6.57603
6.59257
6.83934
7.08871
7.26393
7.35637
7.37852
7.34815
7.33095
7.46713
7.95265
9.05076
10.91
13.5132
16.4376
19.3127
21.6989
22.7668
22.0194
20.01
17.6485
15.3592
13.3519
11.6678
10.2962
9.17959
8.27888
7.52187
6.97574
6.62864
6.45917
6.49385
6.71925
6.9261
7.06198
7.13484
7.15759
7.14798
7.16902
7.35399
7.8679
8.93157
10.6457
12.9435
15.487
17.9317
19.8708
20.6451
19.9966
18.3166
16.2728
14.2569
12.4724
10.9772
9.76204
8.77465
7.96661
7.29075
6.79348
6.49559
6.49064
6.54623
6.7376
6.91324
7.02859
7.08183
7.09647
7.09555
7.13777
7.34327
7.87835
8.91195
10.5401
12.6365
14.9006
17.0185
18.6097
19.1836
18.6145
17.1848
15.3844
13.5761
11.9569
10.5823
9.45928
8.54953
7.80893
7.1902
6.72884
6.46585
6.63605
6.73169
6.90548
7.04371
7.11846
7.14576
7.14976
7.15197
7.2116
7.45341
8.02227
9.04344
10.551
12.5213
14.5732
16.4353
17.7523
18.1863
17.6825
16.4545
14.8505
13.1895
11.6641
10.3744
9.32086
8.46391
7.77065
7.21635
6.81528
6.60275
6.89055
7.00807
7.15582
7.25456
7.2926
7.29598
7.28934
7.29205
7.36839
7.64
8.23616
9.26135
10.7169
12.5345
14.4379
16.0919
17.1905
17.5237
17.0767
16.0094
14.5529
12.9915
11.5416
10.3159
9.33797
8.55902
7.9305
7.42484
7.04081
6.84525
7.22194
7.34453
7.46016
7.51941
7.52543
7.50958
7.493
7.49615
7.5893
7.8881
8.50699
9.54051
10.9591
12.6843
14.4441
15.9247
16.8463
17.1017
16.7025
15.7652
14.4124
12.9422
11.6115
10.483
9.56994
8.83229
8.2236
7.72852
7.35296
7.1671
7.60258
7.71374
7.79292
7.81501
7.79696
7.76556
7.74152
7.74739
7.85863
8.18361
8.8247
9.86949
11.2636
12.9151
14.5625
15.8926
16.6634
16.8516
16.4875
15.6409
14.4075
13.0983
11.8679
10.7949
9.90997
9.18653
8.58732
8.09786
7.72631
7.54234
8.00582
8.09079
8.13115
8.12329
8.0874
8.04548
8.01806
8.03126
8.16328
8.5152
9.18099
10.2394
11.6203
13.2143
14.7706
15.9614
16.6047
16.724
16.3841
15.6055
14.5471
13.3597
12.2017
11.164
10.303
9.59044
8.99556
8.50711
8.13517
7.94537
8.40666
8.45375
8.45703
8.42789
8.38007
8.3341
8.3089
8.33645
8.4935
8.8755
9.57087
10.6463
12.0257
13.5792
15.0633
16.1241
16.6462
16.6886
16.3476
15.6689
14.7427
13.6562
12.5614
11.5632
10.7225
10.0174
9.42308
8.9317
8.55497
8.35173
8.78303
8.78508
8.75968
8.71514
8.66273
8.62063
8.60505
8.65645
8.8446
9.2635
9.99605
11.0935
12.4679
13.9711
15.3711
16.3076
16.7329
16.7333
16.3974
15.785
14.9561
13.963
12.9326
11.972
11.1475
10.4457
9.84816
9.34988
8.96389
8.74014
9.11694
9.07904
9.03017
8.97749
8.9292
8.90042
8.90478
8.99233
9.21955
9.6739
10.4435
11.5589
12.9243
14.3723
15.6837
16.4923
16.8235
16.7826
16.4733
15.9308
15.1821
14.2745
13.3089
12.3801
11.5654
10.861
10.2551
9.74497
9.34486
9.09442
9.40316
9.3322
9.26699
9.2154
9.18143
9.17783
9.21675
9.34094
9.60929
10.1023
10.9104
12.0405
13.3945
14.784
16.006
16.6817
16.9189
16.8333
16.5426
16.0613
15.4059
14.5927
13.6911
12.7898
11.9748
11.2585
10.6367
10.1077
9.68748
9.40514
9.6457
9.55015
9.4787
9.4401
9.43146
9.46029
9.53931
9.70622
10.0194
10.5545
11.4009
12.545
13.8867
15.2173
16.3504
16.888
17.0281
16.8945
16.6139
16.1831
15.6087
14.8857
14.0654
13.2115
12.3882
11.6463
10.9976
10.4389
9.99059
9.67162
9.85998
9.75146
9.68574
9.66553
9.69098
9.76148
9.88686
10.1022
10.4643
11.0444
11.9284
13.0879
14.419
15.6924
16.7358
17.1284
17.1665
16.98
16.7012
16.3105
15.805
15.1646
14.4229
13.6219
12.8086
12.0444
11.3567
10.7534
10.2652
9.90471
10.0746
9.95964
9.90625
9.91563
9.987
10.1067
10.2845
10.5536
10.9692
11.597
12.5177
13.6954
15.0191
16.2339
17.1874
17.4255
17.3504
17.1063
16.8225
16.4626
16.016
15.4509
14.7836
14.0388
13.2483
12.4571
11.723
11.0724
10.537
10.1303
10.3128
10.2032
10.173
10.2304
10.3571
10.5338
10.7705
11.0989
11.5726
12.2517
13.2086
14.4068
15.7275
16.8783
17.7355
17.8014
17.6001
17.2906
16.9955
16.6595
16.2653
15.7717
15.1802
14.4947
13.7338
12.922
12.1337
11.42
10.8245
10.3685
10.6181
10.5255
10.537
10.6601
10.8534
11.0967
11.4004
11.7952
12.333
13.0672
14.0624
15.2784
16.6014
17.6709
18.4144
18.2776
17.934
17.5481
17.2347
16.9172
16.5748
16.1562
15.6455
15.0276
14.3072
13.4926
12.6473
11.8525
11.1777
10.6607
11.0541
10.9884
11.0706
11.2749
11.5491
11.8722
12.2551
12.7269
13.3364
14.131
15.1681
16.3938
17.7055
18.6629
19.2581
18.8725
18.3584
17.8864
17.5476
17.2462
16.9576
16.6225
16.2062
15.6745
15.0148
14.2215
13.3301
12.4499
11.6721
11.0748
11.7138
11.6905
11.8715
12.1771
12.5517
12.9735
13.4543
14.0188
14.7101
15.5712
16.6495
17.8777
19.117
19.9051
20.2911
19.5924
18.8736
18.2985
17.9262
17.639
17.4101
17.1729
16.874
16.4597
15.8945
15.1582
14.2761
13.3065
12.4134
11.7142
12.7243
12.7771
13.0866
13.5215
14.0232
14.5709
15.1751
15.8526
16.6375
17.5687
18.6723
19.8359
20.9171
21.4326
21.5071
20.4122
19.4438
18.7476
18.3337
18.0587
17.8979
17.7794
17.6298
17.3777
16.9601
16.3394
15.5235
14.5525
13.5361
12.7163
14.2762
14.4641
14.9427
15.5448
16.2097
16.9178
17.6745
18.4841
19.3622
20.3466
21.3811
22.3448
23.1266
23.204
22.8343
21.2374
19.9805
19.1505
18.687
18.4237
18.3369
18.359
18.3972
18.3635
18.1665
17.7485
17.0918
16.2181
15.2186
14.2749
16.6406
17.0595
17.7637
18.5779
19.4445
20.3416
21.2646
22.1984
23.1153
23.9643
24.7374
25.3328
25.5857
25.0413
24.0182
21.8603
20.3134
19.3547
18.8358
18.5853
18.5695
18.7413
18.9999
19.2404
19.3485
19.2458
18.8839
18.2598
17.439
16.6172
19.6665
20.5126
21.5771
22.7024
23.8159
24.8822
25.8761
26.765
27.496
28.0325
28.3417
28.2988
27.7874
26.3728
24.5834
21.9265
20.1611
19.1182
18.5564
18.3073
18.339
18.6361
19.1192
19.6561
20.1346
20.4384
20.5337
20.3681
19.964
19.5011
22.5835
23.8927
25.3433
26.7911
28.1239
29.2901
30.2525
30.9554
31.3188
31.2966
30.8951
29.9902
28.5005
26.2312
23.8099
20.9613
19.1521
18.1291
17.5568
17.3036
17.3474
17.6925
18.2793
19.0186
19.8033
20.5573
21.1857
21.6412
21.9025
22.1168
23.0557
24.7342
26.4918
28.1456
29.5738
30.7142
31.5136
31.8946
31.7649
31.104
29.9405
28.2972
26.1435
23.5098
21.0111
18.5662
17.0144
16.1683
15.6566
15.3995
15.3861
15.6306
16.1144
16.7988
17.6226
18.5285
19.451
20.3415
21.2227
22.258
18.0953
19.6012
21.1981
22.7268
24.0507
25.0817
25.7461
25.9834
25.695
24.8952
23.6409
22.031
20.1238
18.0721
16.3805
14.9659
13.9949
13.4739
13.1119
12.8576
12.7274
12.7257
12.8726
13.1662
13.6022
14.1551
14.7948
15.4979
16.2843
17.3469
22.3476
26.6094
28.2747
29.0812
29.2641
28.7813
27.7158
26.4089
24.9718
23.9099
23.5297
26.9215
35.2208
50.5158
70.8306
94.698
114.653
130.986
126.379
107.665
88.0824
71.1061
57.1399
46.2014
37.7976
31.6377
26.9792
23.0575
19.8771
17.3415
10.4962
11.4662
12.3296
12.9122
13.2238
13.267
13.0543
12.6727
12.2193
11.9233
12.0808
13.8611
18.0982
24.8133
33.2106
42.4947
50.4464
55.7251
53.1094
45.9906
38.4967
31.7907
26.2081
21.7401
18.2741
15.6844
13.7194
12.0466
10.9586
9.93811
8.53901
8.90207
9.45436
9.89708
10.1537
10.2334
10.1384
9.9223
9.66981
9.59358
9.97487
11.5284
14.824
19.7816
25.8256
32.3519
38.0287
41.1531
39.066
34.1493
28.8831
24.1111
20.1178
16.8925
14.3688
12.429
10.939
9.69992
8.90786
8.29388
7.75022
7.95368
8.37337
8.73157