/*--------------------------------*- C++ -*----------------------------------*\
| =========                 |                                                 |
| \\      /  F ield         | OpenFOAM: The Open Source CFD Toolbox           |
|  \\    /   O peration     | Version:  5.0                                   |
|   \\  /    A nd           | Web:      www.OpenFOAM.org                      |
|    \\/     M anipulation  |                                                 |
\*---------------------------------------------------------------------------*/
FoamFile
{
    version     2.0;
    format      ascii;
    class       volScalarField;
    location    "300/air";
    object      k;
}
// * * * * * * * * * * * * * * * * * * * * * * * * * * * * * * * * * * * * * //

dimensions      [0 2 -2 0 0 0 0];

internalField   nonuniform List<scalar> 
243000
(
0.0835094
0.0896215
0.0914795
0.0909505
0.0887969
0.0854178
0.0809915
0.0757998
0.0699259
0.0639131
0.0579643
0.0524963
0.0470027
0.0607601
0.0960363
0.124206
0.145568
0.160315
0.16324
0.154967
0.140928
0.127718
0.114804
0.102806
0.0920022
0.0824585
0.0747478
0.0686349
0.0670529
0.0671268
0.154313
0.157873
0.156433
0.152449
0.147222
0.140921
0.133602
0.125629
0.117032
0.108611
0.100375
0.0935593
0.0878192
0.118721
0.170853
0.214032
0.246994
0.270621
0.276356
0.263458
0.241411
0.220543
0.199934
0.181079
0.164036
0.14916
0.137239
0.128056
0.1249
0.124867
0.192538
0.196269
0.193957
0.1888
0.182267
0.174547
0.165718
0.15623
0.146148
0.1364
0.126952
0.119442
0.11469
0.155833
0.213617
0.262299
0.299591
0.326217
0.33366
0.320309
0.295825
0.27215
0.248639
0.226955
0.207258
0.190089
0.176341
0.166019
0.162311
0.163176
0.221356
0.225355
0.222841
0.217315
0.210184
0.201692
0.191966
0.181524
0.170475
0.159797
0.149455
0.141506
0.138521
0.186723
0.246357
0.297149
0.336268
0.363788
0.372293
0.359789
0.334702
0.309915
0.285134
0.262059
0.240975
0.222614
0.207906
0.197108
0.193017
0.194655
0.244554
0.248708
0.246248
0.240665
0.233263
0.224326
0.214042
0.202976
0.191272
0.179898
0.16888
0.160653
0.160065
0.212664
0.272011
0.322945
0.36239
0.389719
0.39888
0.387908
0.363311
0.338467
0.31341
0.289839
0.268182
0.249317
0.234202
0.223289
0.21894
0.221092
0.264203
0.268424
0.266068
0.260501
0.252932
0.243684
0.233008
0.221492
0.209304
0.197361
0.185792
0.177373
0.179694
0.234438
0.292359
0.342318
0.381213
0.407887
0.417439
0.408317
0.384902
0.360676
0.335972
0.312483
0.290791
0.271877
0.25671
0.245894
0.241394
0.243841
0.28159
0.285771
0.283439
0.277846
0.270104
0.260573
0.24956
0.237669
0.225068
0.212605
0.200543
0.191992
0.197494
0.252664
0.308581
0.356965
0.394832
0.420727
0.430515
0.423358
0.401571
0.378404
0.354472
0.331468
0.31011
0.291453
0.276478
0.265889
0.261328
0.263921
0.297505
0.301508
0.299077
0.293357
0.285376
0.275522
0.264163
0.251901
0.238896
0.225906
0.213351
0.204698
0.21336
0.267914
0.321483
0.368007
0.40463
0.429771
0.439731
0.434531
0.414702
0.392867
0.370001
0.347783
0.327019
0.308839
0.294225
0.283934
0.279389
0.282014
0.312385
0.316072
0.313413
0.307447
0.299125
0.288878
0.277121
0.264452
0.251004
0.237444
0.224349
0.215614
0.227287
0.280565
0.331616
0.376187
0.411512
0.435987
0.446121
0.442826
0.425153
0.404847
0.383275
0.362058
0.342081
0.324522
0.310387
0.300462
0.296007
0.298602
0.326448
0.329686
0.326682
0.320347
0.311573
0.300841
0.288619
0.275484
0.261528
0.247322
0.233618
0.224844
0.239313
0.290857
0.339354
0.381988
0.416039
0.439952
0.450328
0.448843
0.433442
0.414824
0.394702
0.374639
0.355582
0.338769
0.325228
0.315748
0.311478
0.314029
0.339771
0.342424
0.338965
0.332144
0.322812
0.311507
0.298749
0.285079
0.270542
0.255627
0.241244
0.232537
0.249337
0.298942
0.344936
0.385706
0.418516
0.441965
0.4527
0.452902
0.439855
0.423029
0.404457
0.385654
0.367647
0.351709
0.338883
0.329951
0.325976
0.328476
0.352295
0.354235
0.350225
0.342817
0.332837
0.320887
0.307531
0.29326
0.278068
0.26242
0.247319
0.238735
0.257364
0.304917
0.348506
0.387495
0.419211
0.442351
0.453392
0.45514
0.444479
0.429525
0.412556
0.395122
0.378295
0.363368
0.351392
0.343118
0.339532
0.341978
0.363842
0.364967
0.360328
0.352257
0.341566
0.328926
0.314923
0.3
0.284089
0.267629
0.251797
0.243539
0.263562
0.308887
0.350193
0.387527
0.418249
0.441087
0.452503
0.455618
0.447317
0.434253
0.418959
0.402979
0.38746
0.373677
0.362685
0.355174
0.352054
0.354434
0.374147
0.374378
0.369065
0.360288
0.348858
0.335498
0.320806
0.305162
0.288448
0.27117
0.254986
0.248495
0.26937
0.311306
0.350103
0.385785
0.41548
0.438063
0.44989
0.454282
0.448125
0.43715
0.423574
0.409119
0.394996
0.382476
0.372589
0.365936
0.363341
0.365633
0.382862
0.382179
0.376174
0.366664
0.354474
0.340405
0.325048
0.308724
0.291284
0.273524
0.258496
0.253522
0.274794
0.313762
0.349829
0.383067
0.411206
0.433389
0.44554
0.451063
0.446825
0.437813
0.426174
0.413393
0.40073
0.389541
0.38086
0.375141
0.373106
0.375279
0.389614
0.388033
0.381326
0.371107
0.358258
0.343573
0.327613
0.310765
0.293102
0.276151
0.262149
0.258496
0.279788
0.316092
0.349728
0.380876
0.40741
0.428163
0.439889
0.44608
0.44345
0.436248
0.426331
0.415452
0.404449
0.394633
0.387201
0.382471
0.381003
0.383019
0.394028
0.391573
0.384238
0.373447
0.360063
0.344959
0.328622
0.312128
0.295119
0.27887
0.265789
0.263307
0.284289
0.318183
0.349638
0.378962
0.404043
0.423624
0.43504
0.441113
0.439013
0.432751
0.424345
0.41501
0.405731
0.397532
0.391322
0.387584
0.386662
0.388484
0.395799
0.392601
0.38485
0.373702
0.360135
0.345446
0.329626
0.313572
0.297141
0.281532
0.269293
0.267858
0.288286
0.319913
0.34942
0.377108
0.400864
0.419477
0.430645
0.436614
0.435036
0.429696
0.422024
0.413358
0.404755
0.397885
0.393019
0.390181
0.389719
0.39133
0.394765
0.390982
0.383708
0.373177
0.36015
0.34586
0.330526
0.314907
0.299019
0.284022
0.272565
0.272065
0.291739
0.321174
0.348962
0.375129
0.397676
0.41547
0.426413
0.432298
0.43121
0.426703
0.419756
0.411768
0.403888
0.397416
0.392683
0.390076
0.389923
0.391349
0.392553
0.389219
0.382419
0.372411
0.359904
0.346032
0.331181
0.316011
0.300651
0.28626
0.275538
0.275856
0.294607
0.321884
0.348126
0.372867
0.394302
0.411373
0.422084
0.427906
0.427275
0.423507
0.417299
0.409966
0.402779
0.396707
0.39215
0.38953
0.388834
0.38936
0.390128
0.38701
0.380664
0.371174
0.359219
0.345845
0.331485
0.316784
0.301958
0.288184
0.278163
0.279157
0.296864
0.321942
0.346748
0.370179
0.390581
0.406975
0.417447
0.423221
0.42301
0.419896
0.414421
0.407777
0.401193
0.39551
0.391149
0.388506
0.387348
0.387158
0.387076
0.384071
0.378185
0.369268
0.357949
0.345155
0.331372
0.317148
0.302881
0.289745
0.2804
0.281906
0.298426
0.321413
0.344711
0.366931
0.386362
0.402089
0.412317
0.418042
0.418223
0.415701
0.410925
0.404983
0.398993
0.393658
0.389471
0.386743
0.385149
0.384373
0.38311
0.380211
0.37477
0.36655
0.355971
0.343838
0.330696
0.31708
0.303387
0.290908
0.282215
0.28405
0.299233
0.320274
0.341999
0.362956
0.381504
0.39656
0.406526
0.412181
0.412731
0.410757
0.406652
0.401385
0.395958
0.390951
0.386893
0.384021
0.381995
0.380686
0.378006
0.37527
0.370355
0.36286
0.353138
0.341797
0.329403
0.316482
0.303474
0.291664
0.283605
0.285575
0.299241
0.318442
0.33857
0.358189
0.375881
0.390276
0.399925
0.405471
0.406359
0.404902
0.401445
0.396825
0.391906
0.387209
0.383232
0.380149
0.377674
0.375848
0.371577
0.369118
0.364846
0.358159
0.34934
0.338944
0.327446
0.315337
0.303126
0.292077
0.28463
0.286536
0.298682
0.315987
0.334482
0.35272
0.369439
0.383175
0.392432
0.3978
0.398972
0.398003
0.395196
0.391213
0.386772
0.382335
0.378345
0.374956
0.37198
0.369647
0.363691
0.36167
0.358184
0.352423
0.344643
0.335294
0.324868
0.313748
0.30254
0.292458
0.285643
0.287334
0.297983
0.313369
0.33016
0.346914
0.362475
0.37547
0.384181
0.389248
0.390607
0.390048
0.387851
0.384483
0.380494
0.376263
0.372189
0.368418
0.364849
0.361925
0.354493
0.353113
0.350617
0.345994
0.339493
0.331418
0.322442
0.312795
0.302955
0.294004
0.288205
0.289688
0.298905
0.31241
0.327362
0.342379
0.356432
0.36833
0.376156
0.380667
0.381995
0.381652
0.379897
0.377021
0.37338
0.369263
0.365004
0.360737
0.356474
0.352909
0.345492
0.345259
0.344282
0.341458
0.33698
0.331222
0.324496
0.317236
0.30976
0.303036
0.298894
0.300571
0.308587
0.320221
0.332894
0.345478
0.357136
0.366846
0.372917
0.376156
0.376941
0.376352
0.374551
0.371731
0.368001
0.363611
0.358837
0.353772
0.34854
0.344078
0.352977
0.355492
0.357731
0.358616
0.358331
0.357236
0.355476
0.352991
0.349836
0.346877
0.34533
0.347503
0.353892
0.362548
0.37148
0.379903
0.386936
0.392138
0.394775
0.395589
0.394882
0.39312
0.390391
0.386728
0.38215
0.376743
0.370772
0.364245
0.35747
0.351625
0.490873
0.496953
0.502611
0.507526
0.511649
0.515168
0.517888
0.518129
0.515998
0.512832
0.509304
0.506808
0.506054
0.506438
0.506491
0.507571
0.507731
0.505985
0.504216
0.504102
0.505137
0.506794
0.508325
0.509207
0.509184
0.507831
0.505103
0.500701
0.495287
0.489874
0.142181
0.151906
0.153572
0.151483
0.146661
0.139802
0.131208
0.121674
0.111596
0.102857
0.0965525
0.0970888
0.106355
0.136721
0.1782
0.221054
0.255799
0.282735
0.28835
0.271829
0.249018
0.226341
0.204552
0.184804
0.167411
0.15234
0.14
0.129464
0.123464
0.120378
0.27036
0.274167
0.270238
0.262344
0.252219
0.240142
0.226743
0.213399
0.200794
0.191465
0.186399
0.192914
0.212789
0.259803
0.322657
0.387272
0.439353
0.481511
0.49207
0.464798
0.429068
0.393581
0.359403
0.328756
0.301797
0.27839
0.259259
0.242625
0.233084
0.230342
0.350386
0.353041
0.349618
0.341781
0.331102
0.317834
0.302917
0.288132
0.274445
0.2648
0.260723
0.271226
0.297757
0.353349
0.425335
0.49741
0.554782
0.600465
0.614197
0.586872
0.547935
0.508122
0.469219
0.433662
0.401896
0.374011
0.35123
0.331832
0.321106
0.319646
0.409364
0.410814
0.407971
0.400748
0.390372
0.377074
0.361983
0.347022
0.333395
0.324167
0.321354
0.334871
0.36543
0.424756
0.49856
0.571227
0.628742
0.673634
0.68895
0.664829
0.62682
0.586834
0.547096
0.510097
0.476479
0.446668
0.422013
0.401319
0.389194
0.387716
0.45674
0.457762
0.455173
0.448446
0.438385
0.42532
0.410505
0.395875
0.382767
0.37419
0.372667
0.388458
0.420961
0.48119
0.553284
0.623453
0.679094
0.721593
0.737665
0.717873
0.682574
0.64435
0.605623
0.568874
0.53494
0.504487
0.478891
0.45758
0.444021
0.441883
0.497429
0.498561
0.495921
0.489359
0.479353
0.466417
0.451902
0.43769
0.425193
0.417254
0.416907
0.434282
0.46731
0.526683
0.595408
0.661858
0.714818
0.754631
0.771057
0.755866
0.724129
0.688601
0.651822
0.616227
0.582812
0.552431
0.526427
0.504814
0.490019
0.487
0.534274
0.535694
0.532727
0.525981
0.515717
0.502657
0.488248
0.474317
0.462293
0.454824
0.455419
0.473697
0.506376
0.563758
0.628542
0.691001
0.741151
0.778623
0.795225
0.784592
0.756824
0.72446
0.690117
0.656189
0.623749
0.593823
0.567726
0.545958
0.530229
0.52635
0.568908
0.570505
0.56701
0.55975
0.548901
0.535414
0.520832
0.506924
0.495121
0.487878
0.489053
0.507562
0.539392
0.594235
0.655045
0.713719
0.761293
0.796982
0.81375
0.807489
0.783878
0.754906
0.723263
0.69128
0.660061
0.630805
0.604826
0.583003
0.566683
0.562059
0.602162
0.603653
0.599473
0.591412
0.579679
0.565473
0.550417
0.536243
0.524358
0.517043
0.518351
0.536461
0.567027
0.619442
0.676491
0.731782
0.777189
0.811643
0.82869
0.826488
0.807125
0.781635
0.752831
0.722919
0.693075
0.664633
0.638964
0.61726
0.600723
0.595556
0.634364
0.635339
0.63032
0.621217
0.608366
0.593198
0.577408
0.562697
0.550444
0.542705
0.543653
0.560797
0.591408
0.640326
0.693935
0.74629
0.789954
0.823658
0.841162
0.84253
0.827475
0.805474
0.779528
0.75176
0.723413
0.695981
0.670884
0.649536
0.633154
0.627634
0.665415
0.66541
0.659399
0.64907
0.634949
0.618663
0.601949
0.586489
0.57363
0.565016
0.565088
0.581398
0.611797
0.657549
0.708102
0.757935
0.80021
0.833516
0.85169
0.856016
0.845217
0.826638
0.803525
0.777973
0.751317
0.725133
0.700897
0.680176
0.664255
0.658477
0.694785
0.693502
0.686317
0.674652
0.659204
0.641734
0.624001
0.607666
0.594078
0.585012
0.584138
0.599675
0.62855
0.671649
0.719554
0.767205
0.808331
0.8414
0.860418
0.867101
0.860304
0.845027
0.82471
0.801483
0.776704
0.752011
0.728928
0.709088
0.693841
0.687825
0.721761
0.719038
0.71054
0.697517
0.680778
0.662159
0.643409
0.626178
0.611822
0.602307
0.600571
0.614536
0.642037
0.683159
0.728867
0.774585
0.814662
0.847461
0.867338
0.875815
0.872565
0.860441
0.84285
0.822003
0.799255
0.776262
0.754584
0.735847
0.72141
0.7151
0.745591
0.741328
0.73149
0.71719
0.699286
0.679647
0.659992
0.641964
0.626909
0.616819
0.613912
0.626054
0.652735
0.692798
0.73687
0.780755
0.819715
0.851965
0.87251
0.882254
0.881895
0.872684
0.857667
0.839173
0.818536
0.797382
0.777299
0.759831
0.746267
0.739562
0.765562
0.759747
0.748649
0.733244
0.71439
0.693973
0.673666
0.655109
0.639567
0.629051
0.624746
0.63561
0.661844
0.701018
0.743944
0.786698
0.824483
0.855548
0.876214
0.886798
0.888363
0.881697
0.868993
0.852708
0.834152
0.814884
0.796488
0.780374
0.767676
0.760442
0.781115
0.773855
0.761652
0.745368
0.725865
0.705096
0.684601
0.666058
0.650395
0.638827
0.633461
0.643596
0.669645
0.708087
0.749948
0.791441
0.828198
0.85857
0.879295
0.890115
0.892478
0.887731
0.876896
0.862549
0.845916
0.828438
0.811693
0.796909
0.784994
0.777101
0.79196
0.783454
0.770336
0.753482
0.733829
0.713339
0.693417
0.67481
0.658741
0.646499
0.640498
0.650388
0.676452
0.714267
0.755097
0.795224
0.830823
0.860266
0.880723
0.892024
0.895234
0.891578
0.881902
0.869041
0.854032
0.838049
0.82277
0.80914
0.79783
0.789183
0.798218
0.78887
0.775429
0.758867
0.739631
0.719311
0.699489
0.681163
0.665007
0.65253
0.646376
0.656381
0.682606
0.719833
0.759613
0.798291
0.832498
0.861063
0.881136
0.892459
0.89589
0.892848
0.88457
0.873067
0.859305
0.844287
0.830124
0.817281
0.806238
0.796887
0.801088
0.791616
0.778201
0.761725
0.742836
0.723097
0.703822
0.685865
0.669936
0.657545
0.651645
0.662044
0.688465
0.725053
0.763704
0.800816
0.833576
0.861222
0.880745
0.891752
0.894972
0.891918
0.88401
0.873212
0.860545
0.847031
0.834083
0.821906
0.810759
0.800946
0.801741
0.791737
0.778492
0.762402
0.744184
0.72548
0.70716
0.689881
0.674316
0.662329
0.65691
0.667882
0.694399
0.730195
0.767559
0.802944
0.834163
0.86065
0.879171
0.889839
0.893024
0.889943
0.882237
0.87162
0.8592
0.846051
0.833353
0.8214
0.81045
0.80108
0.798766
0.788527
0.776116
0.761272
0.744544
0.727359
0.710318
0.693926
0.679032
0.667746
0.662876
0.674461
0.700838
0.735567
0.771395
0.804828
0.834404
0.859213
0.87679
0.887273
0.890485
0.887421
0.879955
0.869323
0.856892
0.843702
0.830758
0.818487
0.807193
0.797844
0.793008
0.782963
0.772076
0.759198
0.744911
0.72966
0.714129
0.698908
0.685176
0.674767
0.670428
0.682507
0.708392
0.741662
0.77561
0.806786
0.834544
0.857217
0.874039
0.884355
0.887789
0.884976
0.877843
0.867172
0.854578
0.841039
0.827492
0.814417
0.802242
0.792371
0.786297
0.777013
0.767985
0.757905
0.746416
0.733333
0.719733
0.706381
0.694093
0.684651
0.680835
0.693091
0.718098
0.749434
0.781087
0.809594
0.8351
0.85541
0.871345
0.881497
0.885391
0.883276
0.876531
0.865899
0.853112
0.83906
0.824693
0.810517
0.797002
0.785861
0.780246
0.772321
0.766008
0.759065
0.750242
0.740242
0.72936
0.718186
0.707637
0.699405
0.696189
0.708161
0.731948
0.760873
0.789779
0.815044
0.837432
0.855769
0.869952
0.879638
0.884057
0.88302
0.876923
0.866556
0.853354
0.838606
0.823361
0.807988
0.792843
0.780119
0.776777
0.771337
0.768138
0.764697
0.759714
0.753363
0.745831
0.737507
0.729273
0.722696
0.720381
0.731859
0.754098
0.780265
0.805908
0.827058
0.84546
0.860772
0.872842
0.881403
0.885935
0.886452
0.882146
0.872715
0.859502
0.843611
0.826134
0.808163
0.791128
0.776756
0.779503
0.777561
0.778539
0.77985
0.779724
0.77817
0.775182
0.770963
0.766128
0.762163
0.761618
0.773134
0.793453
0.816408
0.837888
0.853754
0.86694
0.878324
0.886918
0.893134
0.896936
0.898224
0.895764
0.887962
0.875119
0.85803
0.838224
0.817301
0.796685
0.779024
0.79758
0.800502
0.807818
0.815807
0.822595
0.827822
0.831515
0.83358
0.833966
0.834212
0.837041
0.849137
0.867147
0.884771
0.899848
0.908376
0.914947
0.921219
0.924606
0.927023
0.92909
0.930232
0.928802
0.922519
0.910188
0.892011
0.869537
0.844453
0.819021
0.797092
0.851231
0.86295
0.880118
0.897863
0.914254
0.928805
0.941688
0.951929
0.958674
0.963594
0.968888
0.97885
0.990115
0.996839
0.996594
0.991278
0.987204
0.985069
0.980874
0.979984
0.983398
0.988805
0.992714
0.991671
0.981194
0.963004
0.938947
0.910184
0.879217
0.851205
0.976491
1.00486
1.03485
1.06165
1.08525
1.10581
1.1233
1.13507
1.13777
1.13502
1.12835
1.11969
1.10652
1.08605
1.0568
1.02958
1.01067
0.996552
0.984355
0.981499
0.989481
1.00463
1.02214
1.03742
1.04497
1.04415
1.03541
1.01809
0.994925
0.972958
1.00963
1.05446
1.09365
1.12419
1.14756
1.16414
1.17337
1.17382
1.16186
1.14197
1.11517
1.08386
1.04663
1.00629
0.965615
0.932519
0.908699
0.889609
0.875078
0.870989
0.877538
0.891668
0.909733
0.930281
0.952348
0.971329
0.985389
0.993098
0.994681
0.997722
0.186817
0.200445
0.20351
0.201774
0.196328
0.188119
0.17774
0.166577
0.155393
0.147129
0.143466
0.153034
0.175689
0.219196
0.272008
0.326943
0.371721
0.407717
0.411233
0.383268
0.348804
0.315071
0.283843
0.25628
0.232536
0.212245
0.195225
0.179897
0.16862
0.161209
0.347795
0.362666
0.363741
0.357958
0.347312
0.333096
0.316793
0.300753
0.286263
0.276792
0.274899
0.293973
0.332697
0.404603
0.489593
0.576258
0.643416
0.696398
0.70113
0.653055
0.596856
0.542472
0.492504
0.449449
0.413043
0.381873
0.355468
0.330681
0.312473
0.302093
0.443622
0.457012
0.459775
0.454888
0.444455
0.429788
0.412706
0.395943
0.381259
0.372523
0.373845
0.3985
0.444643
0.526849
0.620922
0.714257
0.78543
0.838912
0.845326
0.796113
0.735713
0.676326
0.6213
0.573204
0.531941
0.496089
0.465596
0.437544
0.417969
0.409656
0.51311
0.52439
0.52777
0.523423
0.513602
0.499457
0.482944
0.466832
0.453181
0.445935
0.450704
0.478697
0.528304
0.613255
0.706976
0.798468
0.867807
0.917528
0.924991
0.879455
0.820506
0.761577
0.706531
0.657788
0.615357
0.578056
0.546059
0.517125
0.496876
0.489751
0.569633
0.579683
0.582779
0.578503
0.56898
0.555324
0.539569
0.524411
0.512073
0.506415
0.514231
0.544157
0.595005
0.678899
0.768594
0.854991
0.92041
0.96543
0.973634
0.933408
0.878196
0.822014
0.769061
0.721586
0.679672
0.642419
0.610045
0.581205
0.560314
0.553645
0.619384
0.628928
0.631122
0.626512
0.616847
0.603351
0.588133
0.5738
0.562654
0.558445
0.568766
0.599734
0.650573
0.731283
0.81568
0.895991
0.956735
0.997343
1.00616
0.971831
0.921383
0.868966
0.819008
0.773615
0.732972
0.696463
0.664294
0.635929
0.61465
0.608068
0.665908
0.675026
0.675894
0.670588
0.660353
0.646627
0.631591
0.617787
0.607546
0.604525
0.616749
0.648171
0.698306
0.774832
0.853679
0.927932
0.983999
1.02093
1.03035
1.00209
0.956868
0.908709
0.862142
0.819191
0.780166
0.744692
0.713002
0.685221
0.66385
0.657172
0.710914
0.719293
0.718608
0.712258
0.701101
0.686792
0.671582
0.657966
0.648308
0.646153
0.659667
0.691114
0.740215
0.812223
0.885747
0.954414
1.00622
1.04027
1.05038
1.02808
0.988318
0.944654
0.901639
0.861285
0.82399
0.789641
0.758573
0.731411
0.710218
0.703358
0.755067
0.762167
0.759894
0.752192
0.739813
0.724629
0.708944
0.695226
0.685851
0.684259
0.6985
0.729627
0.777539
0.845082
0.91371
0.977399
1.02554
1.05736
1.06829
1.05169
1.01748
0.978385
0.938978
0.901229
0.865706
0.832548
0.802227
0.775768
0.755034
0.74802
0.798386
0.803558
0.799627
0.790369
0.77659
0.760353
0.743999
0.729969
0.720655
0.719337
0.733852
0.764382
0.811065
0.874387
0.938599
0.997891
1.04292
1.07306
1.08483
1.07356
1.04489
1.01033
0.974487
0.939365
0.905694
0.873879
0.844519
0.818912
0.798839
0.791589
0.840287
0.842919
0.837284
0.826363
0.811137
0.79381
0.776715
0.762271
0.752877
0.751594
0.766013
0.795832
0.841262
0.900725
0.961007
1.01639
1.05874
1.08754
1.1001
1.09364
1.07036
1.0402
1.00791
0.975518
0.943869
0.913577
0.885373
0.860739
0.841406
0.833763
0.879749
0.879482
0.8721
0.859521
0.84294
0.824616
0.806844
0.792002
0.782491
0.781085
0.795162
0.824274
0.868474
0.924504
0.981367
1.03322
1.07316
1.10075
1.11391
1.1116
1.09336
1.06749
1.03875
1.00916
0.979662
0.95104
0.924159
0.900593
0.882018
0.87378
0.915447
0.912492
0.903233
0.889111
0.871391
0.852299
0.834044
0.81894
0.809393
0.807802
0.821432
0.849988
0.892988
0.946177
1.00016
1.04879
1.0864
1.11265
1.12615
1.12706
1.11337
1.09161
1.06629
1.0395
1.01224
0.985389
0.959954
0.937527
0.919668
0.910601
0.946408
0.940931
0.929865
0.914441
0.895921
0.876414
0.85801
0.842904
0.833538
0.831798
0.845057
0.8733
0.915337
0.966409
1.01814
1.06379
1.09898
1.12344
1.13694
1.13988
1.13014
1.11206
1.08992
1.06579
1.04075
1.0157
0.991765
0.970493
0.953263
0.943135
0.971808
0.964002
0.951351
0.934994
0.916132
0.896684
0.878613
0.863894
0.855109
0.853349
0.866233
0.894392
0.935424
0.984505
1.03391
1.07669
1.11015
1.13367
1.14677
1.15046
1.14377
1.12863
1.10931
1.08753
1.06455
1.04122
1.01873
0.998546
0.981814
0.970411
0.99113
0.981242
0.967348
0.950545
0.931942
0.913147
0.896093
0.882218
0.873855
0.872233
0.885025
0.913198
0.953185
1.0003
1.0473
1.0871
1.11877
1.14136
1.15468
1.1595
1.15493
1.14171
1.12459
1.10465
1.08337
1.06153
1.04027
1.02102
1.00461
0.991785
1.00431
0.992582
0.977892
0.961273
0.943777
0.926297
0.910357
0.897537
0.889892
0.888612
0.901644
0.929733
0.968663
1.01374
1.05817
1.09475
1.12445
1.14606
1.15979
1.16545
1.16278
1.1519
1.1365
1.11774
1.09752
1.07676
1.05633
1.03774
1.02143
1.00717
1.01188
0.998812
0.984113
0.968112
0.951801
0.936053
0.921693
0.910256
0.90357
0.902851
0.916398
0.944184
0.982023
1.02487
1.06652
1.09959
1.12696
1.14758
1.16165
1.1682
1.16701
1.1582
1.14453
1.1272
1.10797
1.08779
1.06755
1.04915
1.03267
1.01739
1.01599
1.00187
0.987205
0.972156
0.957261
0.943286
0.930867
0.921048
0.915479
0.915545
0.929675
0.956972
0.993575
1.0339
1.07251
1.10169
1.12691
1.14602
1.16033
1.16782
1.16755
1.16078
1.14894
1.133
1.11458
1.09462
1.07452
1.05576
1.03855
1.02287
1.01689
1.00233
0.988085
0.97435
0.961308
0.94926
0.938931
0.930851
0.926465
0.927526
0.94208
0.968701
1.0038
1.04122
1.07646
1.10133
1.12342
1.14106
1.15546
1.16392
1.16484
1.15953
1.14875
1.13419
1.11641
1.09629
1.07541
1.0555
1.03759
1.02214
1.01425
0.999792
0.987138
0.975721
0.964949
0.955294
0.947133
0.940871
0.937718
0.939849
0.954499
0.980219
1.01344
1.0475
1.07893
1.09892
1.1175
1.13326
1.14757
1.15682
1.15941
1.15591
1.14693
1.13335
1.11597
1.09571
1.07418
1.05315
1.03407
1.01838
1.00905
0.99564
0.985691
0.977504
0.969609
0.962776
0.956986
0.952659
0.950793
0.953954
0.96823
0.992746
1.02362
1.05376
1.08085
1.09534
1.10991
1.12333
1.1372
1.14701
1.15158
1.15026
1.14389
1.13188
1.11525
1.09496
1.07268
1.05032
1.02964
1.01294
1.0038
0.992833
0.98645
0.981588
0.97731
0.973588
0.970468
0.968259
0.967798
0.971878
0.985256
1.00809
1.03606
1.06162
1.08368
1.09192
1.10184
1.11251
1.12543
1.13537
1.14184
1.14341
1.13982
1.13046
1.11497
1.09487
1.07207
1.04849
1.02611
1.00779
1.00236
0.994424
0.991531
0.990779
0.990588
0.990462
0.990403
0.990542
0.991778
0.996613
1.00872
1.02896
1.05341
1.07353
1.08965
1.0905
1.09524
1.10277
1.11386
1.12344
1.13137
1.13611
1.13597
1.12984
1.11653
1.0976
1.0744
1.04924
1.025
1.00499
1.00675
1.0031
1.00465
1.009
1.0136
1.01765
1.02117
1.02411
1.02723
1.03264
1.04306
1.05991
1.0796
1.09302
1.10149
1.09347
1.0923
1.09584
1.10404
1.11267
1.12174
1.12947
1.1337
1.13211
1.12308
1.10654
1.0842
1.05801
1.03124
1.00828
1.02311
1.02442
1.03239
1.04281
1.05293
1.06187
1.06958
1.07576
1.08079
1.08636
1.09448
1.10696
1.11977
1.12321
1.12051
1.1018
1.09358
1.09211
1.09629
1.10336
1.11342
1.12431
1.1334
1.13768
1.13479
1.12283
1.10263
1.07684
1.04895
1.02379
1.05858
1.06817
1.08422
1.10197
1.11847
1.13288
1.14495
1.15425
1.16039
1.16482
1.16876
1.17299
1.17287
1.16042
1.1419
1.11049
1.0941
1.08704
1.08634
1.09158
1.10261
1.11692
1.13177
1.14354
1.14878
1.14583
1.13258
1.11128
1.08458
1.05846
1.12318
1.14568
1.17205
1.19751
1.21968
1.23803
1.2522
1.26103
1.26267
1.25908
1.25065
1.23721
1.21544
1.18265
1.1455
1.1017
1.07781
1.06551
1.06066
1.06425
1.07622
1.09361
1.11381
1.13365
1.14882
1.15729
1.15818
1.15156
1.13641
1.11962
1.16202
1.20145
1.24036
1.27353
1.29918
1.31725
1.32771
1.32926
1.31772
1.29677
1.26798
1.23366
1.19173
1.14239
1.09164
1.04328
1.01709
1.00322
0.997148
1
1.01132
1.02848
1.04938
1.07221
1.09437
1.1134
1.12793
1.13687
1.14136
1.14847
1.04209
1.08283
1.12264
1.15672
1.18291
1.20044
1.20861
1.20625
1.19074
1.1652
1.1312
1.09155
1.04613
0.998448
0.953301
0.917865
0.900132
0.892619
0.890636
0.89437
0.902611
0.913809
0.926981
0.941928
0.958686
0.975274
0.990444
1.00316
1.01358
1.0282
0.225404
0.242618
0.247006
0.24606
0.240729
0.231974
0.220628
0.20861
0.196829
0.188569
0.185868
0.201211
0.234657
0.292287
0.359382
0.42914
0.487491
0.535966
0.534276
0.490532
0.440029
0.392281
0.350245
0.314164
0.283929
0.259055
0.238505
0.219703
0.204402
0.192912
0.410643
0.438011
0.447405
0.445284
0.435393
0.420191
0.402023
0.384184
0.368196
0.357926
0.357274
0.384966
0.442446
0.541693
0.654269
0.76791
0.852756
0.913646
0.905822
0.833433
0.751099
0.672701
0.603431
0.546289
0.500567
0.463332
0.432495
0.4027
0.378963
0.361841
0.519851
0.545861
0.556919
0.555819
0.546437
0.531144
0.512608
0.494443
0.478793
0.470168
0.474706
0.508644
0.575118
0.686649
0.810062
0.93209
1.02104
1.08008
1.07124
0.994668
0.90533
0.819597
0.743258
0.680041
0.629195
0.587331
0.552461
0.519744
0.495265
0.482488
0.597454
0.620608
0.632117
0.631186
0.622388
0.607829
0.590251
0.573215
0.55931
0.553329
0.563078
0.601025
0.671375
0.785612
0.908518
1.02811
1.11403
1.16676
1.15802
1.08415
0.995079
0.908707
0.831453
0.767274
0.71533
0.672387
0.636438
0.603639
0.579514
0.57016
0.660388
0.68162
0.692498
0.69114
0.682523
0.668592
0.652111
0.636516
0.624654
0.621539
0.635912
0.676763
0.748836
0.861503
0.979903
1.0929
1.17297
1.21873
1.21054
1.14188
1.05609
0.971717
0.895853
0.832603
0.781176
0.738583
0.70274
0.670889
0.647233
0.639986
0.716151
0.736273
0.745733
0.743547
0.73468
0.721076
0.705507
0.69128
0.681335
0.68111
0.699384
0.742493
0.815394
0.924394
1.03696
1.14199
1.21508
1.25457
1.24725
1.1848
1.10378
1.02263
0.949145
0.887531
0.837188
0.795416
0.760105
0.729436
0.706397
0.700323
0.768846
0.787927
0.795357
0.792072
0.782605
0.769015
0.754088
0.741029
0.7327
0.735317
0.756746
0.801632
0.874994
0.979666
1.08609
1.18305
1.24907
1.28336
1.27723
1.22135
1.14585
1.0686
0.997875
0.938081
0.888934
0.848037
0.813329
0.783697
0.761346
0.755816
0.820377
0.838048
0.842981
0.838416
0.828109
0.81428
0.799755
0.787647
0.780699
0.785937
0.809975
0.856272
0.929889
1.03017
1.13064
1.21991
1.27934
1.3095
1.30485
1.25566
1.18607
1.11307
1.04522
0.987183
0.939087
0.898924
0.864765
0.835976
0.814329
0.80897
0.871387
0.887014
0.889201
0.883225
0.871897
0.857666
0.843382
0.832074
0.826366
0.834014
0.860258
0.907746
0.981399
1.0774
1.17219
1.25431
1.30787
1.33475
1.33188
1.28925
1.22582
1.15723
1.09225
1.03585
0.988676
0.949121
0.915475
0.887434
0.866499
0.861049
0.921624
0.934358
0.933824
0.926339
0.91394
0.899272
0.88519
0.874625
0.87011
0.879948
0.908085
0.956628
1.03021
1.12198
1.21138
1.28678
1.33517
1.3594
1.35851
1.32218
1.26504
1.20096
1.13892
1.08414
1.03789
0.998942
0.965813
0.938384
0.917997
0.912114
0.970185
0.979141
0.976226
0.967151
0.953761
0.938772
0.924974
0.915206
0.911911
0.923783
0.953576
1.00312
1.07647
1.16406
1.24826
1.31721
1.36103
1.38301
1.38407
1.35369
1.30296
1.24354
1.18469
1.13162
1.08632
1.04794
1.01525
0.988266
0.968221
0.961524
1.01581
1.02044
1.01537
1.00482
0.990661
0.975591
0.962292
0.953476
0.95152
0.965341
0.996662
1.0472
1.12007
1.20353
1.2827
1.34527
1.38491
1.40482
1.40755
1.38274
1.33846
1.28398
1.22857
1.17728
1.13294
1.09509
1.06277
1.03608
1.01614
1.00822
1.05707
1.05729
1.05025
1.03846
1.02388
1.0091
0.996622
0.988994
0.988627
1.00439
1.0372
1.08884
1.16078
1.24027
1.31447
1.3706
1.40626
1.42403
1.42803
1.4083
1.37036
1.32107
1.26925
1.21988
1.17654
1.13918
1.10715
1.0806
1.06052
1.05097
1.09251
1.08901
1.08002
1.06733
1.05278
1.03877
1.02752
1.02135
1.02303
1.04082
1.07516
1.12789
1.19775
1.27229
1.3405
1.39023
1.42275
1.44001
1.4448
1.42952
1.39759
1.35365
1.30552
1.25827
1.21596
1.17904
1.14719
1.12062
1.10015
1.08862
1.12144
1.11474
1.10405
1.09093
1.07697
1.06431
1.05476
1.0505
1.05465
1.07396
1.10951
1.16273
1.22967
1.2987
1.36045
1.40344
1.43255
1.44961
1.45608
1.44574
1.41946
1.38082
1.33662
1.2916
1.25031
1.21373
1.18193
1.15513
1.13402
1.1202
1.14353
1.13406
1.12211
1.10916
1.09644
1.08584
1.07842
1.07587
1.08252
1.10331
1.13999
1.19279
1.25622
1.3193
1.37439
1.41032
1.43585
1.4525
1.46045
1.45424
1.43445
1.40207
1.36206
1.31948
1.27911
1.24272
1.21078
1.18349
1.16149
1.14517
1.15887
1.14704
1.1344
1.12246
1.11163
1.10308
1.09786
1.09742
1.10659
1.12883
1.16641
1.21773
1.2773
1.33409
1.38247
1.41116
1.43295
1.4489
1.45813
1.45487
1.44082
1.41489
1.38041
1.34175
1.30246
1.266
1.23371
1.2056
1.18244
1.16363
1.16806
1.15425
1.14159
1.13117
1.12249
1.11634
1.11344
1.1156
1.12712
1.15068
1.18854
1.23767
1.29303
1.34329
1.38499
1.40634
1.42429
1.43939
1.44966
1.44857
1.43818
1.41743
1.38984
1.35604
1.31946
1.28398
1.25135
1.22206
1.19746
1.17665
1.17355
1.1577
1.14507
1.13612
1.13002
1.12648
1.12608
1.13102
1.14459
1.16925
1.20639
1.25289
1.30373
1.34723
1.38237
1.39637
1.41046
1.42455
1.43557
1.43638
1.42912
1.4127
1.38794
1.35863
1.32663
1.29346
1.26128
1.23158
1.20596
1.18458
1.17507
1.15832
1.14619
1.13895
1.13553
1.13465
1.13707
1.14451
1.15975
1.18488
1.22057
1.26389
1.30992
1.34608
1.37516
1.38185
1.39217
1.40502
1.41658
1.41906
1.41437
1.40162
1.3814
1.35478
1.3248
1.29291
1.26116
1.23127
1.20516
1.18418
1.17228
1.15549
1.14552
1.14106
1.14046
1.14259
1.14774
1.15723
1.17361
1.19831
1.23188
1.27133
1.3109
1.34127
1.36407
1.36351
1.37011
1.38173
1.39366
1.39743
1.39482
1.38536
1.36918
1.34704
1.31955
1.2893
1.25822
1.22811
1.2013
1.18032
1.16639
1.15131
1.1451
1.14405
1.14683
1.15202
1.15961
1.17066
1.18736
1.21085
1.24149
1.27601
1.30971
1.33335
1.34984
1.34214
1.34497
1.35573
1.36787
1.37247
1.37147
1.36485
1.35245
1.33462
1.31152
1.28353
1.25363
1.22368
1.19615
1.17452
1.16088
1.14964
1.14723
1.15026
1.15674
1.16488
1.17462
1.18668
1.2028
1.22432