/*--------------------------------*- C++ -*----------------------------------*\
| =========                 |                                                 |
| \\      /  F ield         | OpenFOAM: The Open Source CFD Toolbox           |
|  \\    /   O peration     | Version:  5.0                                   |
|   \\  /    A nd           | Web:      www.OpenFOAM.org                      |
|    \\/     M anipulation  |                                                 |
\*---------------------------------------------------------------------------*/
FoamFile
{
    version     2.0;
    format      ascii;
    class       volScalarField;
    location    "300/air";
    object      nut;
}
// * * * * * * * * * * * * * * * * * * * * * * * * * * * * * * * * * * * * * //

dimensions      [0 2 -1 0 0 0 0];

internalField   nonuniform List<scalar> 
243000
(
0.00015294
0.000152554
0.000148504
0.000142821
0.000136303
0.000129346
0.000122119
0.000114823
0.000107478
0.000100436
9.38092e-05
8.78512e-05
8.18016e-05
9.08113e-05
0.000115029
0.000131382
0.000143089
0.000151586
0.000154976
0.000153481
0.000149272
0.000145358
0.000141372
0.000137604
0.000134222
0.000131298
0.00012938
0.000128475
0.000131734
0.000136888
0.000736822
0.000745322
0.000741798
0.000732135
0.000719311
0.00070361
0.000684985
0.000664124
0.000640896
0.000617231
0.000593187
0.00057214
0.000551705
0.000635394
0.000769708
0.000864777
0.000930581
0.000975233
0.000986338
0.00096336
0.00092231
0.000881433
0.000839025
0.00079831
0.000759717
0.000724355
0.000694682
0.000670801
0.000662246
0.000662054
0.000823043
0.000830943
0.000825867
0.000814622
0.000800211
0.000782918
0.000762723
0.000740428
0.000715992
0.000691477
0.000666813
0.000646
0.000629526
0.000729352
0.000861187
0.000957584
0.00102509
0.00107088
0.00108389
0.00106231
0.00102101
0.000979172
0.000935697
0.000893784
0.00085402
0.000817782
0.000787513
0.000763865
0.000755052
0.00075698
0.000882478
0.000890293
0.000885121
0.000873872
0.000859218
0.000841511
0.000820821
0.000798024
0.000773174
0.000748306
0.000723304
0.0007028
0.000690957
0.000799661
0.000925209
0.00101932
0.00108609
0.00113087
0.00114488
0.00112582
0.00108594
0.00104482
0.00100196
0.000960396
0.000920858
0.000884987
0.000855106
0.000832364
0.00082347
0.000826904
0.000927497
0.000935147
0.00093031
0.000919502
0.000905063
0.000887387
0.000866652
0.000843779
0.000818888
0.000793878
0.000768703
0.000748566
0.000741831
0.000854592
0.000972439
0.00106262
0.00112741
0.00117035
0.00118486
0.00116879
0.00113118
0.00109168
0.00105031
0.00100989
0.000971345
0.000936476
0.000907509
0.000885898
0.000877049
0.000881326
0.000963887
0.000971307
0.00096684
0.000956485
0.000942312
0.000924771
0.000904132
0.000881331
0.000856522
0.000831418
0.000806103
0.000786252
0.000785088
0.000898386
0.00100828
0.00109389
0.0011561
0.00119705
0.00121178
0.00119882
0.00116396
0.00112661
0.00108718
0.00104836
0.00101125
0.000977748
0.000949964
0.000929556
0.000920871
0.000925529
0.000994864
0.00100194
0.000997668
0.000987609
0.0009736
0.000956129
0.000935563
0.000912829
0.000888079
0.000862813
0.000837308
0.000817681
0.000822711
0.000933277
0.00103589
0.0011168
0.00117624
0.00121536
0.00123016
0.00122024
0.00118844
0.00115354
0.00111633
0.0010794
0.001044
0.00101207
0.000985629
0.000966435
0.000958011
0.000962776
0.00102228
0.00102884
0.00102453
0.00101455
0.00100052
0.000982983
0.000962381
0.000939615
0.000914818
0.000889256
0.000863432
0.000843947
0.000854995
0.000961383
0.00105723
0.00113361
0.00119031
0.00122787
0.0012427
0.00123568
0.00120716
0.00117486
0.00114005
0.00110522
0.0010717
0.00104147
0.00101648
0.000998453
0.000990366
0.000995058
0.00104717
0.00105303
0.00104845
0.00103832
0.00102407
0.00100629
0.000985499
0.00096256
0.000937554
0.000911519
0.000885185
0.000865764
0.00088242
0.000984011
0.00107359
0.00114575
0.00119988
0.00123614
0.00125107
0.00124678
0.00122165
0.00119204
0.00115977
0.00112718
0.00109566
0.00106719
0.00104368
0.00102681
0.00101913
0.00102364
0.00107005
0.00107505
0.00107002
0.00105952
0.00104485
0.00102664
0.0010055
0.000982223
0.000956822
0.000930098
0.000903031
0.00088363
0.000905492
0.00100198
0.00108579
0.00115409
0.0012059
0.0012411
0.00125628
0.00125453
0.00123283
0.00120598
0.00117633
0.00114606
0.0011166
0.00108993
0.00106794
0.00105224
0.00104508
0.0010494
0.00109116
0.00109514
0.00108951
0.00107845
0.00106317
0.00104438
0.00102272
0.00099895
0.000972962
0.000945365
0.000917347
0.000898068
0.000924307
0.00101581
0.00109438
0.00115921
0.00120885
0.00124322
0.00125887
0.00125944
0.0012412
0.00121717
0.00119016
0.00116223
0.00113486
0.00111007
0.00108967
0.00107521
0.0010687
0.00107284
0.00111054
0.00111336
0.00110698
0.00109521
0.00107918
0.00105965
0.00103736
0.00101293
0.000986177
0.000957609
0.000928491
0.000909459
0.000939085
0.00102585
0.0010997
0.00116137
0.00120933
0.00124317
0.00125913
0.00126179
0.00124697
0.00122581
0.00120139
0.00117582
0.00115061
0.00112777
0.00110908
0.00109596
0.00109021
0.00109418
0.00112801
0.00112956
0.00112233
0.00110973
0.00109284
0.00107249
0.00104944
0.00102424
0.000996562
0.000966835
0.00093657
0.000918128
0.000950411
0.00103243
0.00110203
0.00116096
0.00120727
0.00124063
0.0012571
0.0012617
0.00125026
0.00123187
0.00121004
0.00118683
0.00116387
0.00114307
0.0011262
0.0011145
0.00110959
0.00111339
0.00114327
0.00114348
0.00113535
0.00112186
0.00110404
0.00108279
0.00105887
0.00103273
0.00100393
0.000972957
0.000942255
0.000927317
0.00096152
0.00103673
0.00110156
0.00115789
0.00120268
0.00123571
0.00125277
0.00125912
0.00125057
0.00123529
0.00121605
0.00119522
0.00117451
0.00115585
0.00114088
0.00113068
0.00112667
0.00113028
0.00115591
0.00115479
0.00114573
0.00113128
0.00111247
0.00109033
0.00106555
0.00103848
0.00100863
0.000976945
0.0009485
0.000936539
0.000971724
0.00104104
0.00110122
0.00115371
0.00119597
0.0012285
0.00124604
0.00125396
0.00124812
0.00123547
0.0012191
0.00120082
0.00118241
0.00116586
0.00115287
0.00114423
0.00114113
0.00114451
0.00116548
0.00116307
0.00115306
0.00113768
0.00111801
0.00109505
0.00106946
0.00104167
0.00101153
0.000981401
0.000954971
0.00094557
0.000980982
0.00104513
0.00110111
0.00115027
0.00119033
0.00122087
0.00123779
0.00124641
0.00124278
0.00123268
0.00121861
0.00120313
0.00118727
0.00117288
0.00116184
0.00115477
0.00115257
0.0011557
0.00117153
0.00116786
0.00115701
0.00114086
0.00112048
0.00109695
0.00107084
0.0010437
0.00101477
0.000986
0.000961387
0.000954223
0.000989241
0.00104879
0.00110098
0.00114725
0.00118527
0.00121417
0.00123064
0.00123925
0.00123633
0.00122736
0.00121525
0.00120194
0.00118852
0.0011766
0.00116746
0.00116191
0.00116055
0.00116338
0.00117368
0.00116899
0.00115757
0.00114093
0.00112033
0.00109746
0.00107222
0.00104586
0.00101801
0.000990475
0.000967532
0.000962344
0.000996586
0.00105176
0.00110064
0.00114432
0.00118045
0.00120799
0.00122415
0.00123271
0.00123049
0.00122274
0.00121176
0.00119934
0.00118678
0.00117657
0.00116945
0.00116531
0.00116462
0.00116714
0.00117174
0.00116619
0.0011556
0.00113988
0.00112011
0.00109788
0.00107344
0.00104785
0.001021
0.000994633
0.000973246
0.000969807
0.00100289
0.00105392
0.0010999
0.00114121
0.00117561
0.001202
0.0012179
0.0012264
0.00122483
0.00121826
0.00120833
0.00119682
0.00118523
0.00117568
0.00116874
0.00116467
0.00116448
0.00116675
0.00116828
0.00116337
0.00115344
0.00113849
0.00111949
0.00109793
0.00107428
0.00104947
0.00102358
0.000998347
0.000978392
0.00097653
0.00100811
0.00105516
0.00109856
0.00113768
0.00117048
0.00119587
0.00121151
0.00121995
0.00121901
0.0012135
0.00120461
0.00119398
0.00118337
0.00117444
0.00116772
0.00116368
0.00116265
0.00116356
0.00116449
0.00115989
0.00115058
0.00113639
0.00111821
0.00109742
0.00107458
0.00105056
0.00102562
0.00100152
0.000982904
0.000982395
0.00101226
0.00105539
0.00109632
0.0011335
0.00116482
0.0011893
0.00120468
0.00121307
0.00121272
0.00120816
0.00120027
0.0011906
0.00118085
0.00117247
0.00116602
0.00116197
0.00116023
0.00116006
0.00115977
0.00115534
0.00114665
0.00113329
0.00111604
0.00109614
0.00107421
0.001051
0.00102702
0.00100407
0.000986727
0.000987305
0.00101519
0.00105461
0.00109304
0.00112845
0.00115841
0.00118201
0.00119711
0.00120547
0.00120566
0.00120196
0.00119503
0.00118632
0.00117743
0.00116955
0.00116331
0.00115916
0.00115677
0.00115569
0.00115369
0.0011494
0.00114133
0.00112896
0.00111279
0.00109388
0.00107296
0.00105074
0.00102774
0.00100596
0.000989817
0.00099118
0.00101685
0.00105283
0.00108875
0.00112223
0.00115101
0.00117374
0.00118856
0.00119685
0.00119758
0.00119466
0.00118865
0.00118087
0.0011728
0.00116536
0.00115927
0.00115492
0.00115188
0.00114998
0.00114588
0.00114183
0.00113449
0.00112314
0.00110821
0.00109049
0.00107072
0.00104962
0.00102778
0.00100717
0.000992195
0.000993971
0.0010171
0.00104992
0.0010833
0.00111479
0.00114241
0.00116433
0.00117878
0.00118696
0.00118819
0.00118601
0.00118089
0.001174
0.00116665
0.00115963
0.00115363
0.00114895
0.00114522
0.00114253
0.00113603
0.00113237
0.00112595
0.00111576
0.00110213
0.00108581
0.00106742
0.00104761
0.00102709
0.00100782
0.000993978
0.00099584
0.00101638
0.00104599
0.00107678
0.00110624
0.00113253
0.00115365
0.00116763
0.00117561
0.00117727
0.00117579
0.00117157
0.00116557
0.00115889
0.00115221
0.00114615
0.00114098
0.00113646
0.00113298
0.00112388
0.00112087
0.00111559
0.00110674
0.00109463
0.00107987
0.00106313
0.0010449
0.00102604
0.00100846
0.000995801
0.000997507
0.00101544
0.00104182
0.00106991
0.00109716
0.00112181
0.001142
0.0011553
0.0011629
0.00116485
0.00116397
0.0011606
0.00115546
0.00114939
0.00114296
0.00113672
0.00113094
0.00112548
0.00112105
0.0011096
0.00110756
0.00110376
0.0010966
0.00108641
0.00107359
0.00105915
0.00104332
0.00102677
0.00101121
0.00100047
0.00100197
0.00101749
0.00104057
0.00106564
0.0010902
0.00111265
0.00113125
0.00114331
0.00115015
0.00115206
0.00115148
0.00114873
0.00114426
0.00113864
0.0011323
0.00112571
0.00111911
0.00111251
0.00110702
0.00109558
0.00109534
0.00109391
0.00108955
0.00108256
0.00107348
0.00106273
0.00105096
0.00103857
0.00102705
0.00101949
0.0010215
0.00103476
0.00105435
0.00107537
0.00109583
0.00111438
0.00112958
0.00113894
0.00114384
0.00114492
0.00114391
0.00114105
0.00113661
0.00113074
0.00112388
0.0011164
0.00110846
0.00110025
0.00109325
0.00110831
0.00111235
0.00111597
0.00111752
0.0011173
0.00111588
0.00111344
0.0011098
0.00110502
0.00110033
0.00109763
0.00110053
0.00111036
0.00112394
0.00113787
0.00115091
0.00116185
0.00116966
0.00117353
0.00117463
0.00117341
0.00117063
0.0011664
0.00116074
0.00115365
0.00114529
0.00113602
0.00112586
0.0011153
0.00110614
0.00131038
0.00131854
0.00132611
0.00133269
0.00133826
0.00134306
0.00134682
0.00134718
0.00134458
0.00134054
0.00133588
0.00133242
0.00133133
0.00133174
0.00133168
0.00133309
0.00133445
0.00133219
0.00132977
0.0013295
0.00133072
0.00133279
0.00133468
0.0013357
0.00133552
0.00133357
0.00132973
0.0013236
0.00131633
0.00130907
0.000199255
0.000198335
0.000192156
0.000184075
0.000174939
0.000165252
0.000155212
0.000145242
0.000135501
0.000127052
0.000120554
0.000118702
0.000122396
0.000137796
0.000157139
0.000175456
0.000189793
0.000201387
0.00020606
0.000203382
0.000198521
0.000193595
0.00018878
0.000184537
0.000181069
0.000178445
0.000177036
0.000176417
0.000178703
0.000183167
0.00109433
0.00107674
0.000998224
0.000914724
0.000841672
0.000775878
0.000717352
0.000669361
0.000630631
0.000604104
0.000584623
0.00058392
0.000592677
0.000644489
0.00073162
0.000823888
0.000895377
0.000964479
0.000993925
0.000968016
0.000935702
0.00090655
0.000877981
0.000855703
0.000838572
0.000826599
0.000820393
0.000815516
0.000814939
0.000837273
0.00198024
0.0020336
0.00193858
0.00180245
0.00166764
0.00153936
0.00142273
0.00132597
0.00124821
0.00119355
0.0011533
0.00114951
0.0011537
0.00124539
0.00140141
0.00156437
0.00168626
0.00180492
0.00187138
0.00184163
0.00178972
0.00174136
0.00169318
0.00165386
0.00162164
0.00159597
0.00158241
0.00157623
0.00157957
0.00163286
0.00276903
0.00288543
0.00279851
0.00263709
0.00245895
0.00228079
0.00211411
0.00197324
0.00185989
0.00177837
0.00171952
0.00170934
0.00170983
0.00184092
0.00204313
0.00225458
0.00241095
0.00256212
0.00266502
0.00264742
0.00258951
0.00253337
0.00247558
0.00242569
0.00238013
0.00234654
0.00232897
0.00232378
0.0023315
0.002413
0.00346745
0.00362883
0.00355553
0.00338428
0.0031796
0.00296615
0.0027613
0.00258529
0.00244196
0.00233906
0.00226504
0.00224952
0.00225299
0.00241404
0.00264271
0.00288335
0.00306397
0.00323483
0.00337013
0.00337439
0.00332111
0.00326583
0.00320547
0.00314866
0.00309492
0.00305673
0.0030365
0.00303342
0.00304548
0.00314917
0.00409759
0.00427789
0.00422522
0.00404738
0.00382331
0.0035867
0.00335579
0.00315355
0.00298849
0.00286888
0.00278365
0.00276395
0.00277765
0.00295753
0.00319825
0.00345422
0.00365166
0.00383428
0.00399627
0.00402793
0.00398699
0.00393816
0.0038793
0.00381703
0.00376201
0.00372272
0.00370213
0.00370255
0.00371932
0.0038389
0.00467509
0.0048529
0.00480248
0.00462382
0.00439214
0.00414229
0.0038954
0.00367571
0.00349622
0.00336451
0.00327185
0.0032515
0.00327495
0.00346543
0.00370883
0.00397048
0.00417924
0.00436934
0.00455133
0.00461283
0.00458917
0.00455019
0.00449445
0.00443466
0.00438327
0.00434658
0.00432804
0.00433439
0.004356
0.00448671
0.00520696
0.00535909
0.00530046
0.00512234
0.00489006
0.00463528
0.00438034
0.00415055
0.00396262
0.0038233
0.00372573
0.00370782
0.00373993
0.00393337
0.00417301
0.00443363
0.00464968
0.00484483
0.00503967
0.00513108
0.00512749
0.00510013
0.00505125
0.00500395
0.00496032
0.00492997
0.00491655
0.00491938
0.00494126
0.00507051
0.00568924
0.00579905
0.00572743
0.00555128
0.00532247
0.00506825
0.00481116
0.00457728
0.00438557
0.00424269
0.00414137
0.00412805
0.00416656
0.00435767
0.00458878
0.00484371
0.00506411
0.00526268
0.00546361
0.00558253
0.00560042
0.00558563
0.00555623
0.00552381
0.00549284
0.00546512
0.00544559
0.00544404
0.00546247
0.00557198
0.00610529
0.00617501
0.00609075
0.00591811
0.00569397
0.00544327
0.00518866
0.00495551
0.00476357
0.0046207
0.00451621
0.00450988
0.00455732
0.00473501
0.00495416
0.00520006
0.00542188
0.00562394
0.00582492
0.00596613
0.0060067
0.00601278
0.0060057
0.00599125
0.00596043
0.00592837
0.00590628
0.00590128
0.00591354
0.00600946
0.00646065
0.00649166
0.00639729
0.00622687
0.00600786
0.00576303
0.0055141
0.0052852
0.00509577
0.00495566
0.00484928
0.00484625
0.0049005
0.0050626
0.00526753
0.00550203
0.00572246
0.00592826
0.0061256
0.00628131
0.0063471
0.00638018
0.00639415
0.00637999
0.00634979
0.00631912
0.00629712
0.00629008
0.00630551
0.00638502
0.00675693
0.00675395
0.00665049
0.00648117
0.0062674
0.00602982
0.00578877
0.00556658
0.00538198
0.00524693
0.00513883
0.00513304
0.00519262
0.00533801
0.00552794
0.00574934
0.00596593
0.00617449
0.00636714
0.00653032
0.00662493
0.00668318
0.00670053
0.00669111
0.00666689
0.00664138
0.00662358
0.00662186
0.00663876
0.00670053
0.00699506
0.00696459
0.00685238
0.00668344
0.00647494
0.00624552
0.00601378
0.00579997
0.00562154
0.00549104
0.00538089
0.00536855
0.00543075
0.00555956
0.00573502
0.00594213
0.00615291
0.00636237
0.00655098
0.00671589
0.00683923
0.00690823
0.00693358
0.00693353
0.00691918
0.00690272
0.00689311
0.0068966
0.00691375
0.00695749
0.00717643
0.00712397
0.00700383
0.00683509
0.00663205
0.0064115
0.00619014
0.00598589
0.00581409
0.0056862
0.00556984
0.00554131
0.00560485
0.00573223
0.0058885
0.00608056
0.00628489
0.00649208
0.00667868
0.00684089
0.00698426
0.00706367
0.00710155
0.0071141
0.00711214
0.00710634
0.00710544
0.00711416
0.00713078
0.00715694
0.00730192
0.00723185
0.00710495
0.00693671
0.00673948
0.0065287
0.00631891
0.00612528
0.00595955
0.00583154
0.00570084
0.00565793
0.00571248
0.00583205
0.00597707
0.00616135
0.00635704
0.00655831
0.0067473
0.00690785
0.00705905
0.00715568
0.00720865
0.00723579
0.00724676
0.00725237
0.00726054
0.00727444
0.00728999
0.00729949
0.00737217
0.00728792
0.00715528
0.00698775
0.00679669
0.00659749
0.0064012
0.00621954
0.00605706
0.00591313
0.00577358
0.00571979
0.00576118
0.0058655
0.0059939
0.0061639
0.00635408
0.00656032
0.00675579
0.00691597
0.00707144
0.0071871
0.00725599
0.00729927
0.00732426
0.00734123
0.00735883
0.00737764
0.00739175
0.00738587
0.00738806
0.00729166
0.00715305
0.00698617
0.00680293
0.00661684
0.00643718
0.00625671
0.00608686
0.00593274
0.00578908
0.00572618
0.00575107
0.00583499
0.00594244
0.00609367
0.00627324
0.00647966
0.00667576
0.00684582
0.00701721
0.00715413
0.00724134
0.00730386
0.00734644
0.00737455
0.00740159
0.00742482
0.00743715
0.00741792
0.00735113
0.00724541
0.00710482
0.00694458
0.00676826
0.00658255
0.00640186
0.006225
0.00605177
0.00589355
0.00574937
0.00567826
0.00568433
0.00574466
0.00582842
0.00595809
0.00612246
0.00632763
0.00652122
0.00669518
0.0068758
0.00703102
0.00714966
0.00724217
0.00731158
0.0073541
0.00739183
0.00741917
0.00742889
0.00740097
0.00727033
0.00715929
0.00701104
0.00684449
0.00666659
0.00648513
0.00630784
0.00613238
0.00595906
0.00580036
0.00565733
0.00557906
0.00556476
0.0056
0.00565893
0.00576561
0.005914
0.00611396
0.00630138
0.00647381
0.00665755
0.00682353
0.00696056
0.00707636
0.00717278
0.00724935
0.0073142
0.00735644
0.00736653
0.00733938
0.00713273
0.0070028
0.00684924
0.0066808
0.00650458
0.00633131
0.00616056
0.00598843
0.00581518
0.0056594
0.00551671
0.00543235
0.00539717
0.0054074
0.00544165
0.00552502
0.00565715
0.00584503
0.0060187
0.00618725
0.0063744
0.00654997
0.00670345
0.00683667
0.00694951
0.00704391
0.00712298
0.00717743
0.00720216
0.00719842
0.00689797
0.00675801
0.00661019
0.00645251
0.00628867
0.00612745
0.00596499
0.00579671
0.00562648
0.00547612
0.00533161
0.00524233
0.00518696
0.00517336
0.00518418
0.00524485
0.00536071
0.00552803
0.00568704
0.00585064
0.00603775
0.00621936
0.00638711
0.00653432
0.00666103
0.00676846
0.00685774
0.00692055
0.00695409
0.00696593
0.00657631
0.00643677
0.00630471
0.00616594
0.00602542
0.00587826
0.00572407
0.00556131
0.00539918
0.00525405
0.00510569
0.0050125
0.00493925
0.0049039
0.00489358
0.00493309
0.00503303
0.00517442
0.00531966
0.00547514
0.00565893
0.00584313
0.00602069
0.00617802
0.00631527
0.00643179
0.00652721
0.0065955
0.00663385
0.00665423
0.00619196
0.00606414
0.00595011
0.00583786
0.00572017
0.00558542
0.00544122
0.00529045
0.00513697
0.00499398
0.00484155
0.00474402
0.00465814
0.00460391
0.00457586
0.00459689
0.00468069
0.00479638
0.00492661
0.00507139
0.00524792
0.00543179
0.00561185
0.00577433
0.0059185
0.00604105
0.00614051
0.006212
0.0062527
0.00627377
0.00576166
0.00565429
0.00556588
0.00547736
0.00537246
0.0052558
0.00512564
0.00498429
0.00483786
0.00469405
0.00453928
0.00443542
0.00434559
0.00427703
0.00423606
0.00424291
0.00430984
0.00440885
0.00451775
0.0046491
0.00481407
0.00499149
0.00516724
0.00533003
0.00547383
0.00559842
0.0057018
0.00577791
0.00582058
0.0058424
0.00529885
0.005223
0.00515417
0.0050822
0.00499454
0.00489132
0.00477176
0.00463762
0.00449441
0.00434984
0.00419597
0.0040877
0.00400027
0.00392762
0.00388044
0.00387994
0.00393165
0.00401077
0.00410191
0.00421787
0.00436618
0.00453477
0.00470666
0.00486841
0.00501236
0.00513389
0.0052269
0.00529394
0.00534051
0.00536774
0.00481366
0.00476579
0.00471319
0.00465467
0.0045772
0.00448263
0.00436987
0.00424085
0.00410113
0.00395931
0.00381416
0.00371096
0.00363008
0.00356756
0.00352407
0.00352324
0.00356176
0.0036232
0.00369607
0.00379374
0.00392019
0.00406939
0.0042291
0.0043834
0.00452327
0.00464125
0.00472993
0.00479507
0.0048356
0.00485644
0.0043002
0.00426918
0.00423116
0.00418124
0.00411183
0.0040247
0.00392079
0.00380232
0.00367459
0.00354753
0.0034273
0.0033424
0.00327907
0.00323265
0.00320435
0.00320631
0.00323654
0.00328324
0.00333823
0.00341148
0.00350767
0.00362514
0.00375832
0.00389338
0.00401667
0.00412153
0.00420377
0.00426356
0.00429927
0.00431935
0.00375329
0.00373823
0.00371534
0.00367819
0.00362405
0.00355649
0.0034773
0.00338777
0.00329145
0.00319858
0.00311668
0.00306017
0.00301948
0.00298996
0.00297185
0.00297481
0.00300016
0.00303504
0.00306902
0.0031146
0.00317646
0.00325479
0.00334933
0.00345353
0.00354319
0.00361799
0.00367733
0.00371879
0.00374309
0.0037565
0.00326247
0.00327296
0.00327684
0.00326332
0.00323593
0.00320008
0.00315664
0.00310458
0.00304191
0.00298182
0.00293159
0.00289381
0.00286539
0.00284436
0.00284139
0.00285615
0.00288318
0.00291242
0.00293375
0.00295582
0.00298632
0.00301883
0.00305366
0.00309651
0.00314316
0.00318225
0.0032152
0.00323549
0.00324581
0.00325507
0.00291337
0.00293408
0.00294922
0.00295337
0.00295075
0.00294385
0.0029319
0.00291476
0.00289086
0.0028683
0.00284667
0.00283089
0.00281815
0.0028139
0.00282476
0.00285246
0.00288561
0.00291806
0.00294025
0.00295513
0.00296824
0.00297598
0.00297993
0.00298374
0.00298916
0.00298933
0.0029843
0.00297061
0.00294743
0.00291956
0.000228192
0.00022761
0.000220997
0.000212258
0.000202243
0.000191551
0.000180517
0.000169808
0.000159741
0.000151784
0.000146764
0.000149014
0.000157831
0.000175129
0.00019463
0.000213699
0.000229022
0.000242012
0.000246266
0.000241699
0.000235163
0.000228631
0.00022259
0.000217487
0.000213519
0.000210694
0.00020909
0.000207974
0.000208832
0.000211871
0.00142585
0.00146382
0.00138314
0.00128254
0.00118757
0.00109816
0.00101766
0.000951651
0.000899389
0.0008627
0.000838201
0.000849066
0.000878284
0.000976211
0.00110057
0.00123323
0.00132577
0.00141658
0.00144856
0.00139285
0.00133106
0.00127559
0.00122436
0.00118645
0.0011605
0.0011433
0.00113182
0.00111765
0.00109713
0.00111017
0.00267821
0.0028316
0.00274373
0.00257661
0.0023997
0.00222638
0.0020674
0.00193717
0.00183614
0.00176452
0.00172005
0.00173076
0.00176884
0.00193728
0.00215006
0.00237243
0.00251595
0.00266352
0.00274167
0.00266497
0.00256509
0.00247547
0.00239394
0.00233356
0.0022921
0.00226438
0.0022465
0.00222704
0.00220526
0.00226034
0.00382708
0.00406583
0.00399034
0.00378504
0.00354898
0.00331048
0.00308769
0.00290362
0.00276161
0.00265905
0.00260086
0.00260813
0.0026514
0.0028691
0.00313003
0.00340179
0.00357131
0.00375161
0.0038737
0.00380117
0.00368878
0.0035882
0.00349815
0.0034317
0.00338526
0.00335342
0.00333293
0.00331261
0.00330268
0.0033974
0.00489304
0.00516906
0.005098
0.00486904
0.00459453
0.0043108
0.00404214
0.00381719
0.00364318
0.00351568
0.00344734
0.00344862
0.00349955
0.00374846
0.00403001
0.00432277
0.00450771
0.00470587
0.0048657
0.00481351
0.00470727
0.00461226
0.00452807
0.00446513
0.00441867
0.00438393
0.00435879
0.00434512
0.00434769
0.00447937
0.00584849
0.00615055
0.00606978
0.00582412
0.00553054
0.00521997
0.00492138
0.00466879
0.00447285
0.00432611
0.00425337
0.00424736
0.00430554
0.00456908
0.0048546
0.00515125
0.00534566
0.00555345
0.00574415
0.00572253
0.00563526
0.0055561
0.00548593
0.00543072
0.0053846
0.00535079
0.00533189
0.00533017
0.00534781
0.00550548
0.00672553
0.00702259
0.00693244
0.00668091
0.00636668
0.00603696
0.00572228
0.00545429
0.00524696
0.00509056
0.00501778
0.00500223
0.00506204
0.0053271
0.00560642
0.00589706
0.0060979
0.00631055
0.00652536
0.00653979
0.00647917
0.00642168
0.00636933
0.00632245
0.00628754
0.00626712
0.00625936
0.00626963
0.0063033
0.00648243
0.00754481
0.00778462
0.00766517
0.00740935
0.0070978
0.00676579
0.0064449
0.00617078
0.00596002
0.00579892
0.00572894
0.0057068
0.00576175
0.00601895
0.00628565
0.00656496
0.00677101
0.00698525
0.00721723
0.00726969
0.0072395
0.00720651
0.00717201
0.0071526
0.00713833
0.00713225
0.00714048
0.00716299
0.00719674
0.00735918
0.00826427
0.00843515
0.00829362
0.00804073
0.00773626
0.0074084
0.00708887
0.00681536
0.00660592
0.00643879
0.00636514
0.00635111
0.00640461
0.00664098
0.00689129
0.0071567
0.00736762
0.00758092
0.00782342
0.00791307
0.00791407
0.00790678
0.00791192
0.0079209
0.00793032
0.00793128
0.00792759
0.0079384
0.00796092
0.00810505
0.00888159
0.00898263
0.00882929
0.00858408
0.00828863
0.00796748
0.00765444
0.00738616
0.00718246
0.00701304
0.00693135
0.00691639
0.00698845
0.00718942
0.00742228
0.00767264
0.00788767
0.00809945
0.0083456
0.00846917
0.00850198
0.00853699
0.00857974
0.00860389
0.00860163
0.00859143
0.00858207
0.00858879
0.00862212
0.00875005
0.00940465
0.00943963
0.009283
0.00904652
0.00875793
0.00844616
0.00814337
0.00788343
0.00768797
0.00751844
0.00743017
0.00740617
0.00749111
0.00766867
0.00787767
0.0081123
0.00832968
0.00854172
0.00878481
0.00893964
0.00901172
0.00908696
0.00913049
0.00914644
0.00914397
0.00913579
0.00913452
0.00915079
0.009191
0.00929854
0.00983734
0.00981781
0.00966221
0.00942975
0.00914881
0.00884814
0.00855787
0.0083084
0.00812151
0.00795272
0.00785972
0.00782799
0.00790914
0.00807327
0.00825599
0.0084743
0.00869166
0.00890703
0.00914099
0.00932366
0.00943978
0.00951688
0.00956071
0.00958554
0.00959298
0.0095944
0.00960236
0.0096268
0.00967075
0.00975646
0.0101809
0.010128
0.00996744
0.00973776
0.00946499
0.00917649
0.00889995
0.00866176
0.00848332
0.00831489
0.0082177
0.00817989
0.00825179
0.00838991
0.00855341
0.0087546
0.00897108
0.00919202
0.00941404
0.00962574
0.00976079
0.00984258
0.00990167
0.0099396
0.00995721
0.00996905
0.00998699
0.0100191
0.0100649
0.0101289
0.0104438
0.0103669
0.0102002
0.00997296
0.00970892
0.00943337
0.00917106
0.00894395
0.00877352
0.00860339
0.00850093
0.00845698
0.00851292
0.00862391
0.00876423
0.00894869
0.00916304
0.00938976
0.00960423
0.0098281
0.00998093
0.0100826
0.0101587
0.0102081
0.0102379
0.0102614
0.0102899
0.0103297
0.0103761
0.0104197
0.0106291
0.0105332
0.0103607
0.0101362
0.00988177
0.0096198
0.0093718
0.00915469
0.00899094
0.00881456
0.00870315
0.00865235
0.00868507
0.00876525
0.008878
0.00904246
0.00925551
0.00949323
0.00970213
0.00993195
0.010112
0.0102352
0.010328
0.0103913
0.0104354
0.0104722
0.0105122
0.0105598
0.0106067
0.0106312
0.0107381
0.0106255
0.0104473
0.0102265
0.00998328
0.0097353
0.00950137
0.00929152
0.0091269
0.00894258
0.00882324
0.00876277
0.00876655
0.00881287
0.00889476
0.0090357
0.00924358
0.00948528
0.00969785
0.00993652
0.0101445
0.0102919
0.0104052
0.0104868
0.0105489
0.0106015
0.0106542
0.0107104
0.0107583
0.010766
0.0107714
0.0106404
0.0104559
0.0102402
0.0100111
0.00977645
0.00955086
0.00934655
0.00917944
0.00898641
0.00886083
0.0087848
0.00875624
0.00876632
0.00881477
0.00892885
0.00912684
0.00936595
0.0095849
0.00982923
0.0100611
0.0102411
0.010384
0.01049
0.0105747
0.0106478
0.0107157
0.0107822
0.010833
0.0108285
0.0107288
0.0105797
0.0103909
0.010175
0.00995299
0.00973285
0.00951725
0.00931942
0.0091461
0.00894494
0.00881408
0.00871609
0.00865344
0.00862562
0.00863889
0.00872332
0.0089056
0.00913805
0.0093608
0.00961122
0.00985881
0.01007
0.0102473
0.0103879
0.010505
0.0106074
0.0106956
0.010776
0.0108332
0.0108299
0.0106265
0.0104518
0.0102518
0.0100355
0.0098171
0.00960498
0.00940017
0.00920772
0.00902487
0.00881673
0.00867849
0.00855639
0.00845797
0.00839171
0.00836915
0.00842216
0.00859224
0.008808
0.00903148
0.00928594
0.00953799
0.00977845
0.00999285
0.0101711
0.0103231
0.0104557
0.0105734
0.0106736
0.010739
0.010754
0.0104369
0.0102436
0.0100327
0.00981574
0.00960262
0.00939538
0.00919927
0.00900699
0.0088132
0.00859988
0.00844974
0.00830542
0.0081706
0.00806693
0.00800948
0.00803126
0.00817579
0.00837517
0.00859494
0.00885047
0.00910683
0.00936199
0.00959528
0.00980976
0.00999447
0.0101533
0.0102909
0.0104071
0.0104922
0.0105397
0.0101236
0.00991801
0.00971293
0.00950755
0.00930131
0.00910236
0.008909
0.00871382
0.00850913
0.00829142
0.00812533
0.0079621
0.00779373
0.0076561
0.00756655
0.00755843
0.00767407
0.00785261
0.00806445
0.00831399
0.00857551
0.00884232
0.00909796
0.0093354
0.00954593
0.00973055
0.00989425
0.0100363
0.0101463
0.0102243
0.00967329
0.00947192
0.00928813
0.00910243
0.00890628
0.00871637
0.00852447
0.00832527
0.00811077
0.00788915
0.00770444
0.00752617
0.00733354
0.00716709
0.0070505
0.00701592
0.00710125
0.00725619
0.00745386
0.0076907
0.00795344
0.00822605
0.00850271
0.00876019
0.00899304
0.00919965
0.00938637
0.0095529
0.0096888
0.0097912
0.00909746
0.00892753
0.00876797
0.00859471
0.00841503
0.0082329
0.00804249
0.00783937
0.00761775
0.00739306
0.00719058
0.00700154
0.0067983
0.00661208
0.00647597
0.00641967
0.00647577
0.00661408
0.00679691
0.00700881
0.00725558
0.00753021
0.00781356
0.0080881
0.00833401
0.00855493
0.00875814
0.00894697
0.00910698
0.00922863
0.00842396
0.00829062
0.00814288
0.00798757
0.00782402
0.0076507
0.00746271
0.00725702
0.00703407
0.00680872
0.00659607
0.00640008
0.00619913
0.00600979
0.00586351
0.00579077
0.0058405
0.00597417
0.00613747
0.00632093
0.00653162
0.0067752
0.00705356
0.00733063
0.00758306
0.00781523
0.00802185
0.00821272
0.00838811
0.00852882
0.00764021
0.00754426
0.00741481
0.00728301
0.00713718
0.00697432
0.00679202
0.00658981
0.00637191
0.00615282
0.00594263
0.00575
0.00556166
0.00538383
0.00524121
0.0051835
0.00524495
0.00537108
0.00551365
0.00566711
0.00583787
0.00603157
0.00625544
0.00652097
0.00677831
0.00701596
0.0072238
0.00741011
0.00757556
0.00770994
0.00677622
0.00670051
0.00660233
0.00649433
0.00636762
0.00622032
0.00605187
0.00586382
0.00566262
0.00546212
0.00527033
0.00509538
0.00492971
0.00477053
0.00467404
0.00464916
0.00472292
0.00484212
0.00496485
0.00508908
0.00521929
0.00536152
0.00552231
0.00570617
0.00593029
0.00616059
0.00635546
0.00653596
0.00669116
0.0068133
0.00585077
0.00580424
0.00573931
0.00565887
0.00555771
0.00543616
0.00529517
0.00513681
0.00496655
0.00479835
0.0046397
0.00449292
0.00435156
0.00425904
0.00421048
0.00421834
0.00430152
0.0044171
0.00452283
0.00462165
0.00471392
0.00480637
0.00490863
0.00502129
0.00515044
0.00529599
0.00546013
0.00562772
0.00575793
0.00586036
0.00493789
0.00493221
0.00490875
0.00486156
0.0047929
0.00470677
0.00460488
0.00448779
0.00435345
0.00422047
0.0040977
0.00400292
0.00392321
0.0038687
0.00386068
0.00390026
0.00399956
0.0041158
0.00421311
0.00429332
0.00435555
0.00439758
0.00444055
0.0044943
0.00455753
0.00461809
0.0046812
0.00475227
0.00483674
0.00492283
0.004161
0.00415551
0.00415014
0.00413423
0.0041011
0.00405389
0.00399554
0.00393029
0.00385422
0.00377235
0.00369946
0.00364391
0.00360164
0.00358907