/*--------------------------------*- C++ -*----------------------------------*\
| =========                 |                                                 |
| \\      /  F ield         | OpenFOAM: The Open Source CFD Toolbox           |
|  \\    /   O peration     | Version:  5.0                                   |
|   \\  /    A nd           | Web:      www.OpenFOAM.org                      |
|    \\/     M anipulation  |                                                 |
\*---------------------------------------------------------------------------*/
FoamFile
{
    version     2.0;
    format      ascii;
    class       volVectorField;
    location    "1750/porous";
    object      U;
}
// * * * * * * * * * * * * * * * * * * * * * * * * * * * * * * * * * * * * * //

dimensions      [0 1 -1 0 0 0 0];

internalField   nonuniform List<vector> 
36000
(
(0.00555056 7.02127e-05 0.000289042)
(0.00340903 4.42548e-05 6.71224e-05)
(0.00220329 3.69639e-05 1.37094e-05)
(0.00180686 3.07685e-05 1.60336e-06)
(0.00158038 2.55944e-05 1.93769e-07)
(0.00143087 2.16609e-05 -4.36081e-08)
(0.00131992 1.86587e-05 -9.92078e-08)
(0.00123221 1.63201e-05 -1.35691e-07)
(0.00116052 1.44475e-05 -1.60066e-07)
(0.00110042 1.29121e-05 -1.72951e-07)
(0.00104907 1.16278e-05 -1.77879e-07)
(0.00100455 1.05356e-05 -1.7742e-07)
(0.000965469 9.59367e-06 -1.73401e-07)
(0.000930829 8.77161e-06 -1.67055e-07)
(0.000899864 8.04684e-06 -1.59238e-07)
(0.000871988 7.40224e-06 -1.50509e-07)
(0.000846739 6.82465e-06 -1.41276e-07)
(0.000823745 6.30378e-06 -1.31816e-07)
(0.000802709 5.83144e-06 -1.22328e-07)
(0.000783384 5.40112e-06 -1.12951e-07)
(0.000765565 5.00747e-06 -1.03783e-07)
(0.000749081 4.64611e-06 -9.48911e-08)
(0.000733788 4.3134e-06 -8.63245e-08)
(0.000719561 4.00627e-06 -7.81114e-08)
(0.000706293 3.72211e-06 -7.02717e-08)
(0.000693893 3.4587e-06 -6.28102e-08)
(0.00068228 3.21413e-06 -5.5738e-08)
(0.000671383 2.98666e-06 -4.90354e-08)
(0.000661141 2.77503e-06 -4.27358e-08)
(0.000651495 2.57749e-06 -3.67443e-08)
(0.000642404 2.39422e-06 -3.12607e-08)
(0.000633804 2.22077e-06 -2.57577e-08)
(0.000625709 2.06537e-06 -2.15649e-08)
(0.000617941 1.90318e-06 -1.51741e-08)
(0.000610837 1.7957e-06 -1.56401e-08)
(0.000603417 1.58008e-06 7.51337e-10)
(0.000598099 1.65824e-06 -2.70251e-08)
(0.000588667 1.0485e-06 6.14485e-08)
(0.000590144 1.86584e-06 -1.49862e-07)
(0.000568369 1.43897e-07 5.9449e-07)
(0.00562429 8.38019e-05 0.000295874)
(0.00352515 5.57859e-05 6.94443e-05)
(0.00238476 4.95062e-05 1.59396e-05)
(0.00202138 4.17585e-05 3.37245e-06)
(0.00182312 3.58425e-05 1.57099e-06)
(0.00169624 3.13323e-05 1.11423e-06)
(0.0016036 2.77807e-05 9.06686e-07)
(0.00153095 2.49103e-05 7.56706e-07)
(0.00147176 2.25175e-05 6.42938e-07)
(0.00142217 2.04752e-05 5.57478e-07)
(0.00137972 1.86995e-05 4.92088e-07)
(0.00134278 1.71334e-05 4.41028e-07)
(0.00131018 1.57368e-05 4.00298e-07)
(0.00128111 1.44804e-05 3.67145e-07)
(0.00125493 1.33422e-05 3.39656e-07)
(0.00123117 1.23054e-05 3.16472e-07)
(0.00120947 1.13566e-05 2.96626e-07)
(0.00118953 1.04854e-05 2.79393e-07)
(0.00117111 9.68301e-06 2.64242e-07)
(0.00115403 8.94232e-06 2.50772e-07)
(0.00113812 8.25732e-06 2.38672e-07)
(0.00112326 7.62292e-06 2.27704e-07)
(0.00110934 7.03471e-06 2.17681e-07)
(0.00109625 6.48885e-06 2.0845e-07)
(0.00108393 5.98196e-06 1.99893e-07)
(0.00107229 5.51104e-06 1.91921e-07)
(0.00106129 5.07349e-06 1.84445e-07)
(0.00105086 4.66681e-06 1.77414e-07)
(0.00104096 4.2892e-06 1.70755e-07)
(0.00103154 3.93798e-06 1.64459e-07)
(0.00102258 3.61357e-06 1.58415e-07)
(0.00101403 3.30888e-06 1.52768e-07)
(0.00100589 3.03719e-06 1.47038e-07)
(0.000998042 2.75778e-06 1.42394e-07)
(0.0009907 2.57263e-06 1.35732e-07)
(0.000983227 2.20134e-06 1.35356e-07)
(0.000977202 2.36807e-06 1.18593e-07)
(0.000968384 1.15163e-06 1.53736e-07)
(0.000967691 3.29323e-06 1.33651e-08)
(0.000948244 -2.29532e-06 6.5439e-07)
(0.00561665 4.31986e-05 0.000294818)
(0.00351435 3.87549e-05 6.83114e-05)
(0.00239037 3.89918e-05 1.53282e-05)
(0.00203483 3.50479e-05 2.96223e-06)
(0.00184471 3.11662e-05 1.26848e-06)
(0.00172533 2.78118e-05 8.8646e-07)
(0.00163969 2.49083e-05 7.21895e-07)
(0.00157364 2.24204e-05 5.9765e-07)
(0.00152072 2.02732e-05 4.99538e-07)
(0.00147707 1.84035e-05 4.23725e-07)
(0.00144027 1.67601e-05 3.64413e-07)
(0.00140869 1.53028e-05 3.17311e-07)
(0.00138119 1.40001e-05 2.79306e-07)
(0.00135694 1.28275e-05 2.48196e-07)
(0.00133534 1.17655e-05 2.22413e-07)
(0.00131593 1.07986e-05 2.00819e-07)
(0.00129834 9.91439e-06 1.82559e-07)
(0.00128229 9.10285e-06 1.66994e-07)
(0.00126757 8.3557e-06 1.53636e-07)
(0.00125399 7.66613e-06 1.4209e-07)
(0.00124139 7.02846e-06 1.3206e-07)
(0.00122967 6.43788e-06 1.23293e-07)
(0.00121871 5.89029e-06 1.15588e-07)
(0.00120844 5.38214e-06 1.08793e-07)
(0.00119878 4.91038e-06 1.02764e-07)
(0.00118967 4.47228e-06 9.73968e-08)
(0.00118106 4.06554e-06 9.2594e-08)
(0.0011729 3.688e-06 8.82817e-08)
(0.00116516 3.33809e-06 8.43798e-08)
(0.00115778 3.01354e-06 8.08605e-08)
(0.00115076 2.71486e-06 7.76136e-08)
(0.00114405 2.43583e-06 7.47515e-08)
(0.00113766 2.18855e-06 7.18494e-08)
(0.00113148 1.93606e-06 6.98555e-08)
(0.00112568 1.7716e-06 6.63255e-08)
(0.0011198 1.43146e-06 6.72837e-08)
(0.00111492 1.61431e-06 5.80738e-08)
(0.00110822 3.52653e-07 7.57339e-08)
(0.00110677 2.88885e-06 1.50294e-08)
(0.00109301 -4.63695e-06 3.56787e-07)
(0.00560903 3.7218e-05 0.000295464)
(0.00349577 4.16684e-05 6.89141e-05)
(0.00237452 4.09011e-05 1.5737e-05)
(0.00202133 3.65959e-05 3.25869e-06)
(0.00183431 3.22541e-05 1.48091e-06)
(0.00171797 2.84864e-05 1.04272e-06)
(0.00163519 2.52718e-05 8.38265e-07)
(0.00157184 2.25653e-05 6.87111e-07)
(0.00152146 2.02753e-05 5.71009e-07)
(0.00148021 1.83189e-05 4.83089e-07)
(0.0014457 1.66287e-05 4.15585e-07)
(0.0014163 1.51519e-05 3.62874e-07)
(0.0013909 1.38477e-05 3.2097e-07)
(0.00136869 1.26849e-05 2.87081e-07)
(0.00134905 1.16393e-05 2.59239e-07)
(0.00133154 1.0692e-05 2.36041e-07)
(0.00131579 9.82858e-06 2.16457e-07)
(0.00130154 9.03728e-06 1.9973e-07)
(0.00128855 8.30896e-06 1.8529e-07)
(0.00127665 7.63622e-06 1.72699e-07)
(0.0012657 7.01305e-06 1.61625e-07)
(0.00125557 6.43452e-06 1.51798e-07)
(0.00124617 5.89654e-06 1.43015e-07)
(0.00123741 5.39567e-06 1.3511e-07)
(0.00122921 4.929e-06 1.2795e-07)
(0.00122153 4.49405e-06 1.21425e-07)
(0.00121431 4.0887e-06 1.15443e-07)
(0.00120749 3.71105e-06 1.09938e-07)
(0.00120106 3.35984e-06 1.0484e-07)
(0.00119496 3.03301e-06 1.00115e-07)
(0.00118918 2.73145e-06 9.56781e-08)
(0.00118368 2.44919e-06 9.15896e-08)
(0.00117845 2.19891e-06 8.75859e-08)
(0.00117343 1.94403e-06 8.42076e-08)
(0.00116871 1.77806e-06 8.00628e-08)
(0.00116399 1.44428e-06 7.83008e-08)
(0.00115991 1.61696e-06 7.20121e-08)
(0.00115485 4.56229e-07 7.39751e-08)
(0.00115268 2.78381e-06 6.00358e-08)
(0.0011432 -3.85816e-06 1.81627e-07)
(0.00560508 2.48873e-05 0.00029527)
(0.00348634 3.19097e-05 6.8561e-05)
(0.00236678 3.29948e-05 1.53586e-05)
(0.00201478 3.08458e-05 2.95255e-06)
(0.00182897 2.80114e-05 1.23553e-06)
(0.00171363 2.52317e-05 8.45312e-07)
(0.00163167 2.26644e-05 6.75981e-07)
(0.00156903 2.03784e-05 5.50669e-07)
(0.00151928 1.83655e-05 4.53601e-07)
(0.00147863 1.65966e-05 3.79673e-07)
(0.00144469 1.50382e-05 3.22504e-07)
(0.00141587 1.36585e-05 2.77489e-07)
(0.00139103 1.243e-05 2.41374e-07)
(0.00136938 1.13296e-05 2.11917e-07)
(0.00135031 1.03382e-05 1.8753e-07)
(0.00133337 9.44019e-06 1.67092e-07)
(0.0013182 8.62274e-06 1.49783e-07)
(0.00130453 7.87543e-06 1.34988e-07)
(0.00129212 7.18973e-06 1.22241e-07)
(0.00128081 6.55859e-06 1.11185e-07)
(0.00127044 5.97619e-06 1.01538e-07)
(0.0012609 5.43768e-06 9.30734e-08)
(0.00125207 4.93897e-06 8.5614e-08)
(0.00124389 4.4766e-06 7.90038e-08)
(0.00123627 4.04765e-06 7.3134e-08)
(0.00122916 3.64959e-06 6.78939e-08)
(0.0012225 3.28031e-06 6.32052e-08)
(0.00121625 2.93788e-06 5.89967e-08)
(0.00121037 2.62106e-06 5.52029e-08)
(0.00120482 2.32793e-06 5.1785e-08)
(0.00119958 2.05929e-06 4.86706e-08)
(0.00119462 1.8098e-06 4.58871e-08)
(0.00118992 1.59116e-06 4.32538e-08)
(0.00118544 1.37107e-06 4.10663e-08)
(0.0011812 1.23337e-06 3.86332e-08)
(0.00117708 9.54929e-07 3.71492e-08)
(0.00117328 1.12204e-06 3.54233e-08)
(0.00116929 1.86621e-07 2.8574e-08)
(0.00116626 2.15555e-06 5.33025e-08)
(0.00116032 -2.90787e-06 2.95405e-08)
(0.005603 2.06431e-05 0.000295425)
(0.00348001 3.00625e-05 6.88203e-05)
(0.0023591 3.20574e-05 1.56022e-05)
(0.00200672 3.05767e-05 3.1746e-06)
(0.00182116 2.80205e-05 1.42759e-06)
(0.0017063 2.52901e-05 1.00837e-06)
(0.00162491 2.26849e-05 8.13358e-07)
(0.00156283 2.03337e-05 6.66823e-07)
(0.00151364 1.82595e-05 5.52769e-07)
(0.0014735 1.64447e-05 4.65395e-07)
(0.00144003 1.48584e-05 3.97615e-07)
(0.00141164 1.34671e-05 3.44218e-07)
(0.00138721 1.22403e-05 3.01453e-07)
(0.00136593 1.11518e-05 2.66666e-07)
(0.0013472 1.01793e-05 2.37967e-07)
(0.00133059 9.30498e-06 2.13987e-07)
(0.00131573 8.51401e-06 1.9373e-07)
(0.00130234 7.79452e-06 1.7643e-07)
(0.00129022 7.13684e-06 1.61521e-07)
(0.00127918 6.53315e-06 1.48562e-07)
(0.00126908 5.97705e-06 1.37209e-07)
(0.00125979 5.46332e-06 1.27192e-07)
(0.00125122 4.98763e-06 1.18288e-07)
(0.00124328 4.54641e-06 1.10333e-07)
(0.00123591 4.13666e-06 1.03181e-07)
(0.00122904 3.75587e-06 9.67191e-08)
(0.00122262 3.402e-06 9.08475e-08)
(0.00121661 3.07322e-06 8.54932e-08)
(0.00121096 2.76837e-06 8.05858e-08)
(0.00120565 2.48577e-06 7.60759e-08)
(0.00120064 2.22627e-06 7.19073e-08)
(0.00119591 1.98527e-06 6.80636e-08)
(0.00119144 1.7736e-06 6.44593e-08)
(0.0011872 1.56348e-06 6.11364e-08)
(0.00118316 1.42888e-06 5.80387e-08)
(0.00117934 1.18296e-06 5.46588e-08)
(0.00117559 1.31354e-06 5.41428e-08)
(0.00117225 5.98686e-07 3.9314e-08)
(0.0011685 2.10914e-06 8.15738e-08)
(0.00116462 -1.34807e-06 -2.07103e-08)
(0.00560161 1.56281e-05 0.000295385)
(0.00347577 2.40841e-05 6.87263e-05)
(0.00235408 2.62754e-05 1.54538e-05)
(0.00200186 2.55913e-05 3.02373e-06)
(0.00181672 2.38356e-05 1.2881e-06)
(0.00170234 2.17705e-05 8.8348e-07)
(0.00162138 1.96993e-05 7.03198e-07)
(0.00155968 1.77658e-05 5.70219e-07)
(0.00151079 1.60177e-05 4.68037e-07)
(0.0014709 1.446e-05 3.90701e-07)
(0.00143764 1.30792e-05 3.31266e-07)
(0.00140942 1.18554e-05 2.84736e-07)
(0.00138513 1.07677e-05 2.47596e-07)
(0.00136397 9.79688e-06 2.17412e-07)
(0.00134537 8.92597e-06 1.92496e-07)
(0.00132885 8.14065e-06 1.71639e-07)
(0.00131409 7.42893e-06 1.53974e-07)
(0.0013008 6.78091e-06 1.3886e-07)
(0.00128876 6.18841e-06 1.25807e-07)
(0.0012778 5.64471e-06 1.14444e-07)
(0.00126778 5.14425e-06 1.04491e-07)
(0.00125858 4.68245e-06 9.57113e-08)
(0.00125009 4.25546e-06 8.79262e-08)
(0.00124223 3.86008e-06 8.09968e-08)
(0.00123494 3.49364e-06 7.47869e-08)
(0.00122815 3.15385e-06 6.92151e-08)
(0.00122181 2.83887e-06 6.4188e-08)
(0.00121588 2.54707e-06 5.96398e-08)
(0.00121031 2.27742e-06 5.55116e-08)
(0.00120508 2.02846e-06 5.17598e-08)
(0.00120016 1.80102e-06 4.83352e-08)
(0.00119551 1.59133e-06 4.52026e-08)
(0.00119112 1.409e-06 4.23556e-08)
(0.00118696 1.23135e-06 3.96386e-08)
(0.001183 1.12081e-06 3.75186e-08)
(0.00117931 9.28923e-07 3.41981e-08)
(0.00117554 1.04421e-06 3.62502e-08)
(0.00117262 5.45607e-07 1.78347e-08)
(0.00116836 1.70383e-06 7.21704e-08)
(0.00116613 -5.15299e-07 -7.22145e-08)
(0.00560094 1.2886e-05 0.000295428)
(0.00347324 2.10616e-05 6.88154e-05)
(0.00235028 2.37315e-05 1.55517e-05)
(0.00199752 2.36639e-05 3.12786e-06)
(0.00181221 2.23869e-05 1.39143e-06)
(0.00169789 2.06365e-05 9.8094e-07)
(0.00161708 1.87667e-05 7.92588e-07)
(0.0015556 1.69605e-05 6.50986e-07)
(0.00150694 1.52965e-05 5.40516e-07)
(0.00146728 1.37994e-05 4.55635e-07)
(0.00143424 1.24677e-05 3.89543e-07)
(0.00140622 1.1288e-05 3.37252e-07)
(0.00138212 1.02427e-05 2.95183e-07)
(0.00136113 9.31398e-06 2.60816e-07)
(0.00134268 8.4853e-06 2.32346e-07)
(0.0013263 7.74221e-06 2.08476e-07)
(0.00131167 7.0724e-06 1.88245e-07)
(0.00129849 6.46557e-06 1.70932e-07)
(0.00128656 5.91317e-06 1.55986e-07)
(0.0012757 5.40818e-06 1.42979e-07)
(0.00126577 4.94478e-06 1.31577e-07)
(0.00125665 4.51821e-06 1.21518e-07)
(0.00124824 4.12451e-06 1.12587e-07)
(0.00124046 3.76039e-06 1.04613e-07)
(0.00123323 3.42316e-06 9.74524e-08)
(0.00122651 3.11054e-06 9.09942e-08)
(0.00122023 2.82072e-06 8.51468e-08)
(0.00121436 2.55213e-06 7.98207e-08)
(0.00120885 2.30379e-06 7.49574e-08)
(0.00120368 2.07441e-06 7.0493e-08)
(0.00119881 1.86477e-06 6.63994e-08)
(0.00119422 1.67185e-06 6.25888e-08)
(0.00118987 1.50401e-06 5.91348e-08)
(0.00118578 1.34337e-06 5.57098e-08)
(0.00118186 1.24118e-06 5.31729e-08)
(0.00117827 1.0835e-06 4.87131e-08)
(0.00117446 1.16942e-06 5.1235e-08)
(0.00117183 8.27797e-07 2.90726e-08)
(0.00116724 1.67685e-06 8.83131e-08)
(0.00116587 2.95665e-07 -8.05536e-08)
(0.00560043 1.0174e-05 0.000295418)
(0.00347131 1.70114e-05 6.87909e-05)
(0.0023474 1.94198e-05 1.54997e-05)
(0.00199439 1.95643e-05 3.06469e-06)
(0.00180912 1.86545e-05 1.32493e-06)
(0.00169498 1.72905e-05 9.14604e-07)
(0.00161442 1.57846e-05 7.28838e-07)
(0.00155318 1.43022e-05 5.91168e-07)
(0.00150474 1.29196e-05 4.85215e-07)
(0.00146528 1.16651e-05 4.04937e-07)
(0.00143241 1.05423e-05 3.43243e-07)
(0.00140453 9.54316e-06 2.95e-07)
(0.00138054 8.65476e-06 2.56567e-07)
(0.00135966 7.86327e-06 2.25415e-07)
(0.00134128 7.15552e-06 1.99764e-07)
(0.00132498 6.51976e-06 1.78349e-07)
(0.0013104 5.9459e-06 1.60256e-07)
(0.00129727 5.42544e-06 1.44794e-07)
(0.00128539 4.95129e-06 1.31464e-07)
(0.00127457 4.5176e-06 1.19873e-07)
(0.00126468 4.11953e-06 1.09713e-07)
(0.00125559 3.75307e-06 1.0075e-07)
(0.00124721 3.41492e-06 9.27967e-08)
(0.00123945 3.10234e-06 8.57019e-08)
(0.00123226 2.81304e-06 7.93368e-08)
(0.00122556 2.54513e-06 7.36042e-08)
(0.00121931 2.29708e-06 6.8422e-08)
(0.00121346 2.0676e-06 6.3721e-08)
(0.00120798 1.8559e-06 5.94379e-08)
(0.00120282 1.66097e-06 5.55217e-08)
(0.00119798 1.48355e-06 5.19518e-08)
(0.00119341 1.3214e-06 4.86358e-08)
(0.00118909 1.1816e-06 4.56937e-08)
(0.00118502 1.05068e-06 4.2671e-08)
(0.00118111 9.69594e-07 4.07587e-08)
(0.00117759 8.53847e-07 3.6414e-08)
(0.00117376 9.28556e-07 4.03429e-08)
(0.00117133 7.1606e-07 1.68852e-08)
(0.00116655 1.3581e-06 8.11713e-08)
(0.00116593 5.38342e-07 -1.01566e-07)
(0.00560017 8.22274e-06 0.00029543)
(0.00347016 1.41092e-05 6.88215e-05)
(0.00234539 1.64737e-05 1.55359e-05)
(0.00199195 1.69033e-05 3.10737e-06)
(0.00180648 1.6352e-05 1.37214e-06)
(0.00169229 1.53172e-05 9.63377e-07)
(0.00161176 1.40886e-05 7.77198e-07)
(0.00155061 1.28303e-05 6.37813e-07)
(0.00150229 1.16276e-05 5.2937e-07)
(0.00146296 1.05188e-05 4.46223e-07)
(0.0014302 9.51659e-06 3.8155e-07)
(0.00140244 8.61947e-06 3.30386e-07)
(0.00137856 7.81958e-06 2.89207e-07)
(0.00135778 7.10652e-06 2.55519e-07)
(0.0013395 6.46947e-06 2.27576e-07)
(0.00132328 5.89833e-06 2.0411e-07)
(0.00130877 5.38409e-06 1.84182e-07)
(0.00129572 4.91901e-06 1.67109e-07)
(0.0012839 4.49652e-06 1.52344e-07)
(0.00127314 4.11114e-06 1.39481e-07)
(0.0012633 3.75829e-06 1.282e-07)
(0.00125426 3.43417e-06 1.18243e-07)
(0.00124593 3.13565e-06 1.09399e-07)
(0.00123822 2.86011e-06 1.015e-07)
(0.00123106 2.6054e-06 9.44124e-08)
(0.0012244 2.36971e-06 8.80271e-08)
(0.00121819 2.15162e-06 8.22477e-08)
(0.00121237 1.94992e-06 7.69878e-08)
(0.00120692 1.76388e-06 7.21934e-08)
(0.0012018 1.59265e-06 6.77962e-08)
(0.00119698 1.43683e-06 6.37755e-08)
(0.00119244 1.29475e-06 6.0019e-08)
(0.00118814 1.17224e-06 5.66872e-08)
(0.00118412 1.05944e-06 5.32193e-08)
(0.00118023 9.8816e-07 5.10315e-08)
(0.00117675 8.97405e-07 4.60253e-08)
(0.00117293 9.52071e-07 5.00792e-08)
(0.00117064 8.18788e-07 2.47906e-08)
(0.00116575 1.28425e-06 9.08229e-08)
(0.00116548 7.96961e-07 -1.01712e-07)
(0.00559996 6.37934e-06 0.000295427)
(0.00346924 1.10402e-05 6.88153e-05)
(0.00234381 1.2993e-05 1.55186e-05)
(0.00199008 1.33998e-05 3.08331e-06)
(0.00180451 1.30075e-05 1.34402e-06)
(0.00169035 1.2205e-05 9.32568e-07)
(0.00160993 1.12315e-05 7.45151e-07)
(0.00154892 1.02247e-05 6.05692e-07)
(0.00150074 9.25751e-06 4.98001e-07)
(0.00146154 8.36396e-06 4.16134e-07)
(0.00142891 7.5557e-06 3.53053e-07)
(0.00140126 6.83243e-06 3.03626e-07)
(0.00137747 6.18802e-06 2.64207e-07)
(0.00135677 5.61408e-06 2.32239e-07)
(0.00133855 5.10177e-06 2.05921e-07)
(0.00132239 4.64283e-06 1.83964e-07)
(0.00130793 4.22986e-06 1.65423e-07)
(0.00129492 3.85654e-06 1.49595e-07)
(0.00128313 3.51749e-06 1.35963e-07)
(0.0012724 3.20828e-06 1.24114e-07)
(0.00126259 2.92519e-06 1.13738e-07)
(0.00125357 2.6652e-06 1.04592e-07)
(0.00124526 2.42576e-06 9.64759e-08)
(0.00123757 2.20481e-06 8.92324e-08)
(0.00123043 2.00062e-06 8.27392e-08)
(0.00122379 1.8118e-06 7.68807e-08)
(0.00121759 1.6372e-06 7.15872e-08)
(0.00121178 1.4759e-06 6.67801e-08)
(0.00120635 1.32737e-06 6.23965e-08)
(0.00120124 1.19097e-06 5.83795e-08)
(0.00119643 1.06729e-06 5.47219e-08)
(0.00119191 9.55195e-07 5.12956e-08)
(0.00118763 8.59339e-07 4.8298e-08)
(0.00118362 7.72851e-07 4.51e-08)
(0.00117974 7.1982e-07 4.32888e-08)
(0.0011763 6.576e-07 3.84064e-08)
(0.00117248 7.04678e-07 4.32135e-08)
(0.0011703 6.33146e-07 1.74923e-08)
(0.00116535 9.82659e-07 8.58808e-08)
(0.00116544 7.13351e-07 -1.1253e-07)
(0.00559985 4.82814e-06 0.00029543)
(0.00346868 8.44928e-06 6.88258e-05)
(0.00234275 1.00857e-05 1.55316e-05)
(0.00198873 1.05288e-05 3.09971e-06)
(0.00180301 1.03337e-05 1.3637e-06)
(0.00168879 9.78563e-06 9.54398e-07)
(0.00160837 9.07381e-06 7.68243e-07)
(0.0015474 8.31159e-06 6.2928e-07)
(0.00149928 7.56279e-06 5.21458e-07)
(0.00146014 6.86002e-06 4.38998e-07)
(0.00142758 6.21694e-06 3.75006e-07)
(0.0014 5.63655e-06 3.24487e-07)
(0.00137627 5.11626e-06 2.83875e-07)
(0.00135562 4.65083e-06 2.50688e-07)
(0.00133746 4.23418e-06 2.23175e-07)
(0.00132135 3.86027e-06 2.00078e-07)
(0.00130694 3.52351e-06 1.80467e-07)
(0.00129396 3.219e-06 1.63654e-07)
(0.00128222 2.94252e-06 1.49115e-07)
(0.00127152 2.6905e-06 1.36444e-07)
(0.00126174 2.45995e-06 1.25327e-07)
(0.00125276 2.24837e-06 1.15506e-07)
(0.00124448 2.05367e-06 1.0679e-07)
(0.00123681 1.87414e-06 9.90026e-08)
(0.0012297 1.70834e-06 9.20129e-08)
(0.00122308 1.55508e-06 8.57128e-08)
(0.0012169 1.41342e-06 8.00169e-08)
(0.00121112 1.28259e-06 7.48334e-08)
(0.0012057 1.16211e-06 7.01098e-08)
(0.00120061 1.0515e-06 6.57775e-08)
(0.00119582 9.51176e-07 6.18307e-08)
(0.00119132 8.60382e-07 5.81253e-08)
(0.00118705 7.82614e-07 5.48794e-08)
(0.00118307 7.13233e-07 5.14143e-08)
(0.0011792 6.69633e-07 4.94242e-08)
(0.0011758 6.23003e-07 4.41712e-08)
(0.00117199 6.55013e-07 4.8963e-08)
(0.00116988 6.14039e-07 2.23449e-08)
(0.0011649 8.56363e-07 9.13223e-08)
(0.00116515 7.02054e-07 -1.11675e-07)
(0.00559976 3.35122e-06 0.000295428)
(0.00346827 5.87521e-06 6.88239e-05)
(0.00234197 7.04128e-06 1.5526e-05)
(0.00198774 7.35769e-06 3.09124e-06)
(0.00180193 7.22127e-06 1.35302e-06)
(0.0016877 6.82798e-06 9.41774e-07)
(0.00160731 6.31505e-06 7.54216e-07)
(0.0015464 5.76528e-06 6.14421e-07)
(0.00149835 5.22579e-06 5.06242e-07)
(0.0014593 4.72078e-06 4.23815e-07)
(0.00142681 4.26036e-06 3.60143e-07)
(0.00139929 3.84662e-06 3.10139e-07)
(0.00137562 3.47743e-06 2.70175e-07)
(0.00135502 3.14872e-06 2.37708e-07)
(0.00133691 2.8558e-06 2.1094e-07)
(0.00132083 2.59401e-06 1.88584e-07)
(0.00130645 2.35911e-06 1.6969e-07)
(0.0012935 2.14739e-06 1.53557e-07)
(0.00128178 1.95567e-06 1.39653e-07)
(0.00127111 1.7813e-06 1.27567e-07)
(0.00126134 1.62208e-06 1.16984e-07)
(0.00125237 1.47618e-06 1.07655e-07)
(0.0012441 1.34207e-06 9.93757e-08)
(0.00123645 1.21853e-06 9.19884e-08)
(0.00122935 1.10455e-06 8.53633e-08)
(0.00122274 9.99277e-07 7.9392e-08)
(0.00121657 9.02063e-07 7.39932e-08)
(0.0012108 8.12391e-07 6.90818e-08)
(0.00120539 7.29947e-07 6.46099e-08)
(0.00120031 6.54423e-07 6.05105e-08)
(0.00119553 5.8616e-07 5.67732e-08)
(0.00119103 5.24704e-07 5.32645e-08)
(0.00118677 4.72541e-07 5.02122e-08)
(0.00118279 4.26791e-07 4.69057e-08)
(0.00117894 3.99213e-07 4.51225e-08)
(0.00117556 3.71644e-07 3.99615e-08)
(0.00117175 3.97397e-07 4.51208e-08)
(0.0011697 3.81328e-07 1.83864e-08)
(0.00116471 5.50596e-07 8.84356e-08)
(0.00116513 4.7574e-07 -1.17225e-07)
(0.00559971 1.9902e-06 0.000295428)
(0.00346803 3.50313e-06 6.88265e-05)
(0.00234151 4.23885e-06 1.553e-05)
(0.00198714 4.46391e-06 3.09678e-06)
(0.00180125 4.41942e-06 1.36009e-06)
(0.00168697 4.2144e-06 9.49987e-07)
(0.00160658 3.93053e-06 7.63282e-07)
(0.00154568 3.61758e-06 6.24062e-07)
(0.00149767 3.30469e-06 5.16181e-07)
(0.00145864 3.00747e-06 4.33799e-07)
(0.00142618 2.7331e-06 3.69982e-07)
(0.00139869 2.48381e-06 3.1969e-07)
(0.00137506 2.25912e-06 2.79341e-07)
(0.00135448 2.05726e-06 2.46432e-07)
(0.00133639 1.8759e-06 2.19187e-07)
(0.00132033 1.71265e-06 1.96347e-07)
(0.00130598 1.56525e-06 1.76982e-07)
(0.00129305 1.4317e-06 1.60395e-07)
(0.00128135 1.31025e-06 1.46063e-07)
(0.00127069 1.19939e-06 1.33581e-07)
(0.00126094 1.09787e-06 1.22634e-07)
(0.00125199 1.00465e-06 1.12963e-07)
(0.00124373 9.18818e-07 1.04378e-07)
(0.00123609 8.39654e-07 9.67144e-08)
(0.001229 7.66541e-07 8.98365e-08)
(0.0012224 6.9896e-07 8.36399e-08)
(0.00121625 6.36509e-07 7.80303e-08)
(0.00121048 5.78856e-07 7.29305e-08)
(0.00120508 5.25798e-07 6.82842e-08)
(0.00120001 4.77138e-07 6.40235e-08)
(0.00119524 4.33065e-07 6.01418e-08)
(0.00119076 3.93318e-07 5.64942e-08)
(0.00118651 3.59342e-07 5.33196e-08)
(0.00118254 3.29562e-07 4.9882e-08)
(0.0011787 3.10698e-07 4.8002e-08)
(0.00117534 2.92705e-07 4.26788e-08)
(0.00117153 3.05247e-07 4.78022e-08)
(0.00116952 2.96082e-07 2.07003e-08)
(0.00116451 3.88235e-07 9.08944e-08)
(0.001165 3.47722e-07 -1.16713e-07)
(0.00559969 6.53518e-07 0.000295425)
(0.00346791 1.14438e-06 6.8825e-05)
(0.00234128 1.38022e-06 1.55283e-05)
(0.00198683 1.44108e-06 3.09449e-06)
(0.00180091 1.41188e-06 1.35718e-06)
(0.00168662 1.32866e-06 9.46341e-07)
(0.00160624 1.22004e-06 7.5904e-07)
(0.00154536 1.10349e-06 6.19401e-07)
(0.00149736 9.89243e-07 5.11259e-07)
(0.00145836 8.82707e-07 4.28759e-07)
(0.00142593 7.8621e-07 3.64933e-07)
(0.00139846 7.00261e-07 3.14717e-07)
(0.00137485 6.2439e-07 2.74509e-07)
(0.0013543 5.57651e-07 2.41782e-07)
(0.00133622 4.98948e-07 2.14748e-07)
(0.00132018 4.47169e-07 1.92128e-07)
(0.00130583 4.01311e-07 1.72986e-07)
(0.00129292 3.60484e-07 1.56615e-07)
(0.00128122 3.23939e-07 1.42496e-07)
(0.00127057 2.91039e-07 1.30209e-07)
(0.00126083 2.61266e-07 1.19445e-07)
(0.00125188 2.34199e-07 1.0995e-07)
(0.00124363 2.09489e-07 1.01522e-07)
(0.001236 1.86855e-07 9.40013e-08)
(0.00122891 1.66076e-07 8.72548e-08)
(0.00122232 1.46967e-07 8.11801e-08)
(0.00121616 1.29401e-07 7.56792e-08)
(0.00121041 1.1326e-07 7.06859e-08)
(0.00120501 9.84889e-08 6.61351e-08)
(0.00119994 8.50339e-08 6.19569e-08)
(0.00119518 7.2968e-08 5.81568e-08)
(0.00119069 6.22171e-08 5.45872e-08)
(0.00118645 5.328e-08 5.1479e-08)
(0.00118249 4.56841e-08 4.8107e-08)
(0.00117865 4.16442e-08 4.63018e-08)
(0.00117529 3.80256e-08 4.10206e-08)
(0.00117149 4.45673e-08 4.62616e-08)
(0.00116949 4.48523e-08 1.91566e-08)
(0.00116449 7.9871e-08 8.96263e-08)
(0.00116504 7.25765e-08 -1.1882e-07)
(0.00559969 -6.53513e-07 0.000295425)
(0.00346791 -1.14437e-06 6.8825e-05)
(0.00234128 -1.38021e-06 1.55283e-05)
(0.00198683 -1.44107e-06 3.09449e-06)
(0.00180091 -1.41187e-06 1.35718e-06)
(0.00168662 -1.32866e-06 9.4634e-07)
(0.00160624 -1.22003e-06 7.59038e-07)
(0.00154536 -1.10349e-06 6.19401e-07)
(0.00149736 -9.89242e-07 5.11259e-07)
(0.00145836 -8.82709e-07 4.28756e-07)
(0.00142593 -7.86212e-07 3.64933e-07)
(0.00139846 -7.00265e-07 3.14715e-07)
(0.00137485 -6.24393e-07 2.7451e-07)
(0.0013543 -5.57658e-07 2.41783e-07)
(0.00133622 -4.98953e-07 2.14747e-07)
(0.00132018 -4.47177e-07 1.92131e-07)
(0.00130583 -4.01316e-07 1.72986e-07)
(0.00129292 -3.60492e-07 1.56616e-07)
(0.00128122 -3.23944e-07 1.42491e-07)
(0.00127057 -2.91046e-07 1.30207e-07)
(0.00126083 -2.61273e-07 1.19442e-07)
(0.00125188 -2.34204e-07 1.0995e-07)
(0.00124363 -2.09488e-07 1.0152e-07)
(0.001236 -1.86856e-07 9.39965e-08)
(0.00122891 -1.66074e-07 8.72547e-08)
(0.00122232 -1.46964e-07 8.11794e-08)
(0.00121616 -1.29394e-07 7.56815e-08)
(0.00121041 -1.13253e-07 7.06863e-08)
(0.00120501 -9.84799e-08 6.61328e-08)
(0.00119994 -8.50204e-08 6.19591e-08)
(0.00119518 -7.29519e-08 5.81562e-08)
(0.00119069 -6.22059e-08 5.4585e-08)
(0.00118645 -5.3271e-08 5.14812e-08)
(0.00118249 -4.56707e-08 4.8105e-08)
(0.00117865 -4.16309e-08 4.63018e-08)
(0.00117529 -3.8021e-08 4.10197e-08)
(0.00117149 -4.45612e-08 4.62564e-08)
(0.00116949 -4.48473e-08 1.91555e-08)
(0.00116449 -7.98671e-08 8.96253e-08)
(0.00116504 -7.25814e-08 -1.18819e-07)
(0.00559971 -1.99019e-06 0.000295428)
(0.00346803 -3.50312e-06 6.88265e-05)
(0.00234151 -4.23884e-06 1.553e-05)
(0.00198714 -4.4639e-06 3.09678e-06)
(0.00180125 -4.41941e-06 1.36009e-06)
(0.00168697 -4.2144e-06 9.49987e-07)
(0.00160658 -3.93052e-06 7.6328e-07)
(0.00154568 -3.61758e-06 6.24063e-07)
(0.00149767 -3.30468e-06 5.1618e-07)
(0.00145864 -3.00747e-06 4.33802e-07)
(0.00142618 -2.73311e-06 3.69982e-07)
(0.00139869 -2.48381e-06 3.19692e-07)
(0.00137506 -2.25913e-06 2.79343e-07)
(0.00135448 -2.05726e-06 2.4643e-07)
(0.00133639 -1.87591e-06 2.19186e-07)
(0.00132033 -1.71265e-06 1.9635e-07)
(0.00130598 -1.56526e-06 1.76981e-07)
(0.00129305 -1.4317e-06 1.60396e-07)
(0.00128135 -1.31024e-06 1.46064e-07)
(0.00127069 -1.19939e-06 1.33579e-07)
(0.00126094 -1.09788e-06 1.22632e-07)
(0.00125199 -1.00465e-06 1.12964e-07)
(0.00124373 -9.1882e-07 1.04382e-07)
(0.00123609 -8.39656e-07 9.67161e-08)
(0.001229 -7.66537e-07 8.98381e-08)
(0.0012224 -6.98957e-07 8.36385e-08)
(0.00121625 -6.36503e-07 7.80282e-08)
(0.00121048 -5.78851e-07 7.29304e-08)
(0.00120508 -5.25792e-07 6.82868e-08)
(0.00120001 -4.7713e-07 6.40245e-08)
(0.00119524 -4.33051e-07 6.01397e-08)
(0.00119076 -3.93307e-07 5.64934e-08)
(0.00118651 -3.59333e-07 5.33172e-08)
(0.00118254 -3.29552e-07 4.9883e-08)
(0.0011787 -3.10688e-07 4.80011e-08)
(0.00117534 -2.92699e-07 4.26785e-08)
(0.00117153 -3.05245e-07 4.78021e-08)
(0.00116952 -2.96081e-07 2.0698e-08)
(0.00116451 -3.88235e-07 9.08955e-08)
(0.001165 -3.4772e-07 -1.16715e-07)
(0.00559976 -3.35121e-06 0.000295428)
(0.00346827 -5.87521e-06 6.88239e-05)
(0.00234197 -7.04128e-06 1.5526e-05)
(0.00198774 -7.35768e-06 3.09124e-06)
(0.00180193 -7.22127e-06 1.35302e-06)
(0.0016877 -6.82798e-06 9.41774e-07)
(0.00160731 -6.31505e-06 7.54215e-07)
(0.0015464 -5.76527e-06 6.14419e-07)
(0.00149835 -5.22579e-06 5.06245e-07)
(0.0014593 -4.72078e-06 4.23813e-07)
(0.00142681 -4.26036e-06 3.60142e-07)
(0.00139929 -3.84662e-06 3.10136e-07)
(0.00137562 -3.47744e-06 2.70174e-07)
(0.00135502 -3.14873e-06 2.37707e-07)
(0.00133691 -2.85581e-06 2.10942e-07)
(0.00132083 -2.59401e-06 1.88582e-07)
(0.00130645 -2.35911e-06 1.69688e-07)
(0.0012935 -2.14738e-06 1.53558e-07)
(0.00128178 -1.95567e-06 1.39653e-07)
(0.00127111 -1.78131e-06 1.27569e-07)
(0.00126134 -1.62209e-06 1.16985e-07)
(0.00125237 -1.47618e-06 1.07652e-07)
(0.0012441 -1.34207e-06 9.93743e-08)
(0.00123645 -1.21853e-06 9.19875e-08)
(0.00122935 -1.10455e-06 8.53632e-08)
(0.00122274 -9.99274e-07 7.93937e-08)
(0.00121657 -9.02064e-07 7.39917e-08)
(0.0012108 -8.12388e-07 6.90824e-08)
(0.00120539 -7.29945e-07 6.46117e-08)
(0.00120031 -6.5442e-07 6.05085e-08)
(0.00119553 -5.86152e-07 5.67759e-08)
(0.00119103 -5.24697e-07 5.32618e-08)
(0.00118677 -4.72531e-07 5.02111e-08)
(0.00118279 -4.26778e-07 4.69073e-08)
(0.00117894 -3.9921e-07 4.51215e-08)
(0.00117556 -3.71637e-07 3.99645e-08)
(0.00117175 -3.97392e-07 4.51207e-08)
(0.0011697 -3.81321e-07 1.83884e-08)
(0.00116471 -5.5059e-07 8.84366e-08)
(0.00116513 -4.75738e-07 -1.17227e-07)
(0.00559985 -4.82813e-06 0.00029543)
(0.00346868 -8.44927e-06 6.88258e-05)
(0.00234275 -1.00857e-05 1.55316e-05)
(0.00198873 -1.05288e-05 3.09971e-06)
(0.00180301 -1.03337e-05 1.3637e-06)
(0.00168879 -9.78562e-06 9.544e-07)
(0.00160837 -9.07381e-06 7.68243e-07)
(0.0015474 -8.31158e-06 6.29281e-07)
(0.00149928 -7.56279e-06 5.2146e-07)
(0.00146014 -6.86001e-06 4.38998e-07)
(0.00142758 -6.21694e-06 3.75009e-07)
(0.0014 -5.63656e-06 3.24486e-07)
(0.00137627 -5.11626e-06 2.83874e-07)
(0.00135562 -4.65084e-06 2.50689e-07)
(0.00133746 -4.23419e-06 2.23175e-07)
(0.00132135 -3.86027e-06 2.00076e-07)
(0.00130694 -3.52351e-06 1.80465e-07)
(0.00129396 -3.219e-06 1.63653e-07)
(0.00128222 -2.94252e-06 1.49113e-07)
(0.00127152 -2.6905e-06 1.36445e-07)
(0.00126174 -2.45995e-06 1.25329e-07)
(0.00125276 -2.24837e-06 1.15508e-07)
(0.00124448 -2.05367e-06 1.06785e-07)
(0.00123681 -1.87414e-06 9.89997e-08)
(0.0012297 -1.70833e-06 9.20129e-08)
(0.00122308 -1.55507e-06 8.57157e-08)
(0.0012169 -1.41342e-06 8.00141e-08)
(0.00121112 -1.28257e-06 7.4834e-08)
(0.0012057 -1.1621e-06 7.01105e-08)
(0.00120061 -1.05149e-06 6.57786e-08)
(0.00119582 -9.51175e-07 6.18275e-08)
(0.00119132 -8.60371e-07 5.81239e-08)
(0.00118705 -7.82603e-07 5.48776e-08)
(0.00118307 -7.13225e-07 5.14154e-08)
(0.0011792 -6.69625e-07 4.94221e-08)
(0.0011758 -6.22995e-07 4.41737e-08)
(0.00117199 -6.55002e-07 4.89627e-08)
(0.00116988 -6.14031e-07 2.23462e-08)
(0.0011649 -8.56352e-07 9.13219e-08)
(0.00116515 -7.0205e-07 -1.11675e-07)
(0.00559996 -6.37933e-06 0.000295427)
(0.00346924 -1.10402e-05 6.88153e-05)
(0.00234381 -1.2993e-05 1.55186e-05)
(0.00199008 -1.33998e-05 3.08331e-06)
(0.00180451 -1.30075e-05 1.34402e-06)
(0.00169035 -1.2205e-05 9.32568e-07)
(0.00160993 -1.12315e-05 7.45151e-07)
(0.00154892 -1.02247e-05 6.05692e-07)
(0.00150074 -9.25751e-06 4.98002e-07)
(0.00146154 -8.36396e-06 4.16134e-07)
(0.00142891 -7.5557e-06 3.53051e-07)
(0.00140126 -6.83243e-06 3.03627e-07)
(0.00137747 -6.18802e-06 2.64206e-07)
(0.00135677 -5.61408e-06 2.3224e-07)
(0.00133855 -5.10178e-06 2.0592e-07)
(0.00132239 -4.64284e-06 1.83961e-07)
(0.00130793 -4.22987e-06 1.65422e-07)
(0.00129492 -3.85654e-06 1.49595e-07)
(0.00128313 -3.51749e-06 1.35961e-07)
(0.0012724 -3.20828e-06 1.24113e-07)
(0.00126259 -2.9252e-06 1.13737e-07)
(0.00125357 -2.6652e-06 1.04592e-07)
(0.00124526 -2.42577e-06 9.64773e-08)
(0.00123757 -2.20481e-06 8.92333e-08)
(0.00123043 -2.00063e-06 8.27371e-08)
(0.00122379 -1.81179e-06 7.68847e-08)
(0.00121759 -1.63719e-06 7.15916e-08)