/*--------------------------------*- C++ -*----------------------------------*\
| =========                 |                                                 |
| \\      /  F ield         | OpenFOAM: The Open Source CFD Toolbox           |
|  \\    /   O peration     | Version:  5.0                                   |
|   \\  /    A nd           | Web:      www.OpenFOAM.org                      |
|    \\/     M anipulation  |                                                 |
\*---------------------------------------------------------------------------*/
FoamFile
{
    version     2.0;
    format      ascii;
    class       volScalarField;
    location    "1700/porous";
    object      T;
}
// * * * * * * * * * * * * * * * * * * * * * * * * * * * * * * * * * * * * * //

dimensions      [0 0 0 1 0 0 0];

internalField   nonuniform List<scalar> 
36000
(
400
400
400
400
399.999
399.588
399.213
398.861
398.527
398.204
397.89
397.582
397.28
396.982
396.688
396.397
396.109
395.824
395.541
395.261
394.982
394.705
394.429
394.153
393.876
393.6
393.326
393.054
392.785
392.519
392.258
392.004
391.758
391.526
391.312
391.833
392.185
392.454
392.673
392.858
400
400
400
400
399.999
399.637
399.307
399
398.71
398.433
398.166
397.906
397.653
397.405
397.162
396.923
396.688
396.456
396.227
396.001
395.777
395.555
395.335
395.115
394.895
394.676
394.458
394.243
394.03
393.821
393.616
393.416
393.223
393.04
392.867
393.21
393.451
393.637
393.785
393.917
400
400
400
400
399.999
399.644
399.323
399.025
398.746
398.481
398.227
397.982
397.744
397.514
397.289
397.069
396.854
396.643
396.436
396.232
396.032
395.834
395.638
395.443
395.248
395.055
394.863
394.674
394.488
394.306
394.128
393.955
393.79
393.633
393.485
393.801
394.028
394.202
394.342
394.463
400
400
400
400
399.999
399.644
399.323
399.026
398.748
398.485
398.233
397.991
397.757
397.531
397.311
397.096
396.887
396.682
396.481
396.284
396.091
395.901
395.713
395.526
395.34
395.155
394.971
394.791
394.614
394.441
394.272
394.109
393.953
393.806
393.667
393.978
394.202
394.376
394.517
394.637
400
400
400
400
399.999
399.644
399.323
399.027
398.749
398.486
398.235
397.993
397.76
397.535
397.316
397.102
396.894
396.691
396.492
396.298
396.107
395.92
395.734
395.549
395.365
395.183
395.002
394.825
394.65
394.48
394.314
394.155
394.003
393.858
393.722
394.032
394.256
394.429
394.571
394.691
400
400
400
400
399.999
399.644
399.323
399.026
398.748
398.485
398.233
397.992
397.758
397.533
397.314
397.101
396.893
396.69
396.492
396.298
396.109
395.922
395.737
395.553
395.369
395.187
395.008
394.831
394.657
394.487
394.323
394.164
394.013
393.869
393.734
394.043
394.267
394.441
394.583
394.703
400
400
400
400
399.999
399.643
399.323
399.027
398.749
398.486
398.235
397.993
397.76
397.535
397.316
397.103
396.896
396.694
396.496
396.303
396.113
395.927
395.742
395.558
395.375
395.193
395.013
394.837
394.663
394.494
394.33
394.172
394.02
393.877
393.742
394.051
394.275
394.448
394.59
394.71
400
400
400
400
399.999
399.644
399.324
399.028
398.75
398.487
398.235
397.994
397.761
397.536
397.318
397.105
396.898
396.696
396.498
396.305
396.116
395.93
395.745
395.561
395.377
395.196
395.016
394.84
394.666
394.497
394.333
394.175
394.023
393.88
393.745
394.054
394.277
394.451
394.592
394.712
400
400
400
400
399.999
399.644
399.325
399.029
398.752
398.489
398.238
397.997
397.765
397.54
397.322
397.11
396.903
396.702
396.505
396.312
396.123
395.937
395.752
395.567
395.384
395.202
395.023
394.846
394.673
394.504
394.34
394.182
394.03
393.886
393.751
394.06
394.283
394.457
394.598
394.718
400
400
400
400
399.999
399.645
399.326
399.031
398.754
398.492
398.241
398
397.768
397.544
397.326
397.114
396.908
396.707
396.51
396.317
396.128
395.941
395.756
395.572
395.389
395.207
395.028
394.851
394.678
394.509
394.345
394.187
394.035
393.891
393.756
394.064
394.288
394.461
394.602
394.722
400
400
400
400
399.999
399.646
399.327
399.033
398.757
398.495
398.245
398.004
397.772
397.549
397.331
397.12
396.915
396.714
396.517
396.324
396.134
395.947
395.762
395.578
395.395
395.214
395.035
394.858
394.685
394.516
394.352
394.194
394.042
393.898
393.762
394.07
394.294
394.467
394.608
394.728
400
400
400
400
399.999
399.646
399.328
399.034
398.759
398.497
398.247
398.007
397.776
397.552
397.335
397.124
396.919
396.718
396.521
396.327
396.137
395.95
395.765
395.581
395.399
395.218
395.039
394.863
394.69
394.521
394.357
394.198
394.046
393.902
393.765
394.074
394.297
394.47
394.611
394.731
400
400
400
400
399.999
399.647
399.33
399.037
398.762
398.501
398.251
398.011
397.779
397.555
397.339
397.128
396.923
396.722
396.525
396.33
396.139
395.951
395.767
395.583
395.402
395.221
395.043
394.867
394.694
394.525
394.361
394.202
394.05
393.905
393.769
394.077
394.3
394.473
394.614
394.734
400
400
400
400
399.999
399.648
399.331
399.039
398.764
398.503
398.253
398.013
397.781
397.557
397.34
397.13
396.925
396.724
396.525
396.33
396.139
395.951
395.766
395.584
395.402
395.223
395.045
394.869
394.696
394.527
394.363
394.204
394.051
393.906
393.769
394.077
394.301
394.474
394.615
394.735
400
400
400
400
399.999
399.648
399.332
399.04
398.766
398.505
398.255
398.015
397.783
397.558
397.341
397.13
396.925
396.724
396.526
396.33
396.139
395.951
395.766
395.584
395.403
395.224
395.046
394.871
394.698
394.529
394.365
394.206
394.053
393.907
393.769
394.078
394.301
394.475
394.616
394.735
400
400
400
400
399.999
399.649
399.334
399.042
398.768
398.507
398.257
398.016
397.784
397.559
397.342
397.13
396.925
396.724
396.525
396.33
396.139
395.951
395.766
395.585
395.405
395.226
395.048
394.873
394.7
394.531
394.366
394.206
394.052
393.905
393.767
394.076
394.3
394.473
394.615
394.735
400
400
400
400
399.999
399.65
399.334
399.043
398.769
398.508
398.258
398.017
397.784
397.559
397.341
397.129
396.924
396.723
396.525
396.33
396.139
395.951
395.767
395.585
395.405
395.226
395.049
394.874
394.701
394.532
394.366
394.206
394.051
393.904
393.765
394.074
394.298
394.472
394.613
394.733
400
400
400
400
399.999
399.65
399.335
399.044
398.77
398.509
398.259
398.017
397.784
397.559
397.34
397.128
396.922
396.722
396.525
396.33
396.139
395.952
395.768
395.586
395.406
395.227
395.05
394.875
394.702
394.532
394.366
394.205
394.05
393.901
393.762
394.072
394.296
394.47
394.611
394.731
400
400
400
400
399.999
399.65
399.336
399.045
398.771
398.509
398.259
398.017
397.784
397.558
397.339
397.126
396.92
396.72
396.523
396.33
396.139
395.952
395.768
395.585
395.405
395.226
395.048
394.873
394.699
394.529
394.362
394.201
394.045
393.896
393.755
394.066
394.291
394.465
394.606
394.727
400
400
400
400
399.999
399.651
399.336
399.045
398.771
398.51
398.259
398.017
397.783
397.557
397.338
397.125
396.919
396.719
396.523
396.33
396.14
395.952
395.767
395.584
395.403
395.223
395.046
394.87
394.696
394.525
394.358
394.196
394.039
393.89
393.749
394.06
394.285
394.46
394.602
394.722
400
400
400
400
399.999
399.651
399.337
399.046
398.771
398.51
398.259
398.017
397.783
397.556
397.336
397.123
396.917
396.717
396.521
396.328
396.138
395.95
395.764
395.58
395.398
395.218
395.04
394.864
394.69
394.518
394.351
394.188
394.031
393.881
393.739
394.051
394.277
394.451
394.594
394.714
400
400
400
400
399.999
399.651
399.337
399.046
398.772
398.51
398.259
398.017
397.783
397.556
397.336
397.123
396.917
396.716
396.521
396.328
396.137
395.949
395.762
395.578
395.395
395.215
395.036
394.859
394.685
394.513
394.345
394.182
394.024
393.874
393.732
394.045
394.271
394.446
394.588
394.709
400
400
400
400
399.999
399.652
399.338
399.047
398.772
398.511
398.259
398.017
397.782
397.555
397.335
397.122
396.915
396.715
396.519
396.326
396.135
395.945
395.758
395.573
395.39
395.209
395.03
394.853
394.678
394.506
394.338
394.174
394.016
393.865
393.723
394.036
394.263
394.438
394.581
394.702
400
400
400
400
399.999
399.652
399.339
399.048
398.774
398.512
398.26
398.018
397.783
397.556
397.336
397.123
396.917
396.716
396.52
396.326
396.135
395.945
395.757
395.572
395.388
395.207
395.028
394.851
394.676
394.504
394.335
394.17
394.012
393.861
393.718
394.032
394.259
394.434
394.577
394.699
400
400
400
400
399.999
399.652
399.339
399.048
398.774
398.512
398.26
398.018
397.783
397.556
397.336
397.122
396.916
396.715
396.518
396.323
396.131
395.941
395.753
395.568
395.384
395.202
395.023
394.845
394.67
394.497
394.328
394.163
394.004
393.852
393.71
394.024
394.251
394.427
394.57
394.691
400
400
400
400
399.999
399.653
399.341
399.05
398.776
398.514
398.263
398.02
397.785
397.558
397.338
397.124
396.917
396.716
396.518
396.323
396.13
395.94
395.751
395.565
395.381
395.198
395.018
394.84
394.664
394.491
394.321
394.154
393.994
393.841
393.697
394.011
394.239
394.415
394.558
394.679
400
400
400
400
399.999
399.653
399.341
399.049
398.775
398.513
398.261
398.017
397.782
397.554
397.332
397.117
396.909
396.705
396.505
396.308
396.113
395.921
395.73
395.542
395.355
395.171
394.988
394.807
394.628
394.452
394.279
394.11
393.946
393.79
393.642
393.958
394.186
394.362
394.505
394.626
400
400
400
400
399.999
399.654
399.341
399.048
398.772
398.508
398.253
398.007
397.767
397.535
397.309
397.089
396.874
396.664
396.458
396.254
396.052
395.852
395.655
395.458
395.264
395.071
394.88
394.691
394.504
394.319
394.137
393.958
393.784
393.618
393.461
393.782
394.012
394.189
394.331
394.453
400
400
400
400
399.999
399.647
399.325
399.023
398.735
398.459
398.19
397.929
397.674
397.424
397.18
396.94
396.706
396.475
396.247
396.02
395.796
395.572
395.35
395.13
394.911
394.693
394.476
394.261
394.047
393.836
393.627
393.421
393.22
393.027
392.843
393.191
393.436
393.624
393.774
393.906
400
400
400
400
399.999
399.599
399.232
398.885
398.552
398.229
397.914
397.604
397.299
396.999
396.703
396.412
396.124
395.84
395.559
395.278
394.999
394.721
394.444
394.168
393.893
393.619
393.346
393.075
392.805
392.538
392.273
392.011
391.755
391.509
391.279
391.808
392.165
392.436
392.657
392.844
400
400
400
400
399.999
399.781
399.532
399.264
398.985
398.701
398.416
398.129
397.843
397.558
397.274
396.991
396.71
396.431
396.152
395.875
395.6
395.325
395.052
394.778
394.504
394.23
393.958
393.686
393.417
393.15
392.888
392.63
392.379
392.138
391.911
392.158
392.393
392.604
392.79
392.952
400
400
400
400
400
399.812
399.602
399.377
399.145
398.909
398.673
398.437
398.203
397.971
397.74
397.512
397.286
397.062
396.839
396.619
396.401
396.184
395.968
395.753
395.538
395.324
395.111
394.899
394.689
394.481
394.277
394.076
393.881
393.692
393.512
393.626
393.747
393.865
393.971
394.072
400
400
400
400
400
399.817
399.613
399.397
399.175
398.951
398.728
398.506
398.288
398.072
397.859
397.65
397.443
397.24
397.039
396.841
396.646
396.453
396.261
396.071
395.881
395.693
395.506
395.32
395.137
394.956
394.779
394.605
394.437
394.275
394.12
394.222
394.331
394.437
394.534
394.626
400
400
400
400
400
399.817
399.613
399.397
399.176
398.954
398.733
398.515
398.299
398.087
397.879
397.675
397.474
397.276
397.081
396.89
396.702
396.516
396.332
396.15
395.968
395.788
395.609
395.432
395.258
395.086
394.918
394.754
394.595
394.443
394.297
394.398
394.505
394.61
394.708
394.799
400
400
400
400
400
399.817
399.613
399.398
399.177
398.955
398.735
398.517
398.302
398.091
397.884
397.681
397.481
397.285
397.092
396.903
396.717
396.533
396.352
396.172
395.993
395.815
395.639
395.465
395.293
395.124
394.959
394.798
394.643
394.494
394.351
394.451
394.559
394.664
394.762
394.853
400
400
400
400
400
399.816
399.612
399.397
399.176
398.953
398.733
398.514
398.299
398.088
397.881
397.678
397.479
397.283
397.091
396.902
396.716
396.534
396.353
396.174
395.995
395.818
395.643
395.469
395.298
395.13
394.966
394.806
394.652
394.503
394.361
394.462
394.57
394.675
394.773
394.864
400
400
400
400
400
399.816
399.613
399.397
399.176
398.954
398.733
398.515
398.301
398.09
397.883
397.68
397.481
397.285
397.093
396.905
396.72
396.538
396.357
396.178
396
395.823
395.648
395.475
395.304
395.136
394.972
394.813
394.659
394.51
394.368
394.469
394.577
394.682
394.78
394.871
400
400
400
400
400
399.817
399.613
399.397
399.176
398.954
398.733
398.515
398.3
398.09
397.883
397.68
397.481
397.286
397.094
396.906
396.721
396.539
396.359
396.18
396.001
395.824
395.649
395.476
395.306
395.138
394.974
394.815
394.66
394.512
394.37
394.471
394.579
394.684
394.782
394.873
400
400
400
400
400
399.817
399.613
399.398
399.177
398.956
398.735
398.517
398.303
398.093
397.886
397.684
397.485
397.29
397.099
396.911
396.727
396.545
396.364
396.185
396.007
395.83
395.655
395.482
395.312
395.144
394.98
394.821
394.667
394.518
394.376
394.477
394.585
394.69
394.788
394.879
400
400
400
400
400
399.817
399.613
399.399
399.178
398.957
398.736
398.519
398.305
398.095
397.889
397.687
397.488
397.294
397.103
396.915
396.731
396.548
396.368
396.189
396.011
395.834
395.659
395.486
395.316
395.148
394.985
394.825
394.671
394.522
394.38
394.481
394.588
394.693
394.791
394.882
400
400
400
400
400
399.817
399.614
399.4
399.18
398.959
398.739
398.522
398.308
398.098
397.893
397.691
397.494
397.299
397.109
396.921
396.736
396.554
396.373
396.194
396.016
395.84
395.665
395.492
395.322
395.155
394.991
394.832
394.677
394.529
394.386
394.487
394.594
394.699
394.797
394.888
400
400
400
400
400
399.818
399.615
399.401
399.181
398.96
398.741
398.524
398.31
398.101
397.895
397.694
397.497
397.303
397.112
396.924
396.739
396.556
396.376
396.197
396.019
395.843
395.668
395.496
395.326
395.159
394.995
394.835
394.681
394.532
394.389
394.49
394.598
394.702
394.8
394.891
400
400
400
400
400
399.818
399.616
399.402
399.183
398.963
398.743
398.526
398.313
398.104
397.898
397.697
397.5
397.306
397.115
396.927
396.741
396.558
396.378
396.199
396.022
395.846
395.672
395.499
395.329
395.162
394.999
394.839
394.684
394.535
394.393
394.493
394.601
394.705
394.803
394.894
400
400
400
400
400
399.818
399.617
399.403
399.184
398.964
398.745
398.528
398.315
398.105
397.9
397.699
397.501
397.307
397.116
396.927
396.741
396.558
396.378
396.199
396.022
395.847
395.673
395.501
395.331
395.164
395
394.841
394.686
394.536
394.393
394.494
394.601
394.706
394.804
394.895
400
400
400
400
400
399.819
399.617
399.404
399.186
398.966
398.746
398.53
398.316
398.106
397.901
397.7
397.502
397.308
397.116
396.928
396.741
396.558
396.377
396.199
396.023
395.848
395.674
395.502
395.333
395.166
395.002
394.842
394.687
394.537
394.394
394.495
394.602
394.707
394.805
394.896
400
400
400
400
400
399.819
399.618
399.405
399.187
398.967
398.748
398.531
398.317
398.107
397.902
397.7
397.502
397.308
397.117
396.928
396.741
396.558
396.378
396.2
396.024
395.849
395.675
395.504
395.334
395.167
395.003
394.843
394.688
394.537
394.393
394.494
394.601
394.706
394.804
394.895
400
400
400
400
400
399.819
399.619
399.406
399.188
398.968
398.749
398.532
398.318
398.107
397.901
397.699
397.502
397.307
397.116
396.927
396.741
396.558
396.378
396.2
396.024
395.849
395.676
395.505
395.335
395.168
395.004
394.843
394.687
394.536
394.392
394.492
394.6
394.704
394.803
394.894
400
400
400
400
400
399.82
399.619
399.407
399.189
398.969
398.75
398.532
398.318
398.108
397.901
397.699
397.501
397.307
397.116
396.927
396.742
396.559
396.379
396.201
396.025
395.85
395.677
395.505
395.336
395.168
395.004
394.843
394.686
394.535
394.39
394.49
394.598
394.703
394.801
394.892
400
400
400
400
400
399.82
399.619
399.407
399.189
398.969
398.75
398.532
398.318
398.107
397.9
397.698
397.5
397.305
397.115
396.927
396.741
396.559
396.379
396.201
396.024
395.849
395.676
395.504
395.334
395.166
395.001
394.84
394.683
394.53
394.385
394.485
394.593
394.698
394.796
394.888
400
400
400
400
400
399.82
399.62
399.408
399.19
398.97
398.75
398.533
398.318
398.107
397.9
397.698
397.499
397.305
397.114
396.927
396.742
396.559
396.379
396.2
396.023
395.848
395.674
395.502
395.332
395.164
394.998
394.836
394.678
394.526
394.38
394.481
394.589
394.694
394.792
394.883
400
400
400
400
400
399.82
399.62
399.408
399.19
398.97
398.75
398.533
398.318
398.107
397.899
397.696
397.498
397.303
397.113
396.925
396.74
396.557
396.376
396.197
396.02
395.844
395.67
395.497
395.327
395.158
394.992
394.83
394.671
394.519
394.372
394.473
394.581
394.686
394.785
394.876
400
400
400
400
400
399.82
399.62
399.409
399.191
398.971
398.751
398.534
398.319
398.108
397.9
397.697
397.498
397.304
397.114
396.926
396.741
396.557
396.376
396.196
396.018
395.842
395.667
395.495
395.324
395.155
394.988
394.825
394.667
394.513
394.366
394.467
394.575
394.681
394.78
394.871
400
400
400
400
400
399.82
399.621
399.409
399.191
398.971
398.752
398.534
398.319
398.107
397.9
397.696
397.497
397.303
397.112
396.925
396.739
396.555
396.373
396.193
396.014
395.838
395.663
395.49
395.318
395.149
394.982
394.819
394.66
394.506
394.359
394.46
394.568
394.674
394.773
394.864
400
400
400
400
400
399.821
399.621
399.41
399.193
398.973
398.753
398.536
398.321
398.109
397.902
397.698
397.5
397.305
397.114
396.926
396.74
396.556
396.374
396.193
396.014
395.838
395.662
395.489
395.317
395.148
394.981
394.817
394.657
394.503
394.355
394.457
394.565
394.671
394.77
394.861
400
400
400
400
400
399.821
399.622
399.41
399.193
398.973
398.754
398.536
398.321
398.109
397.901
397.698
397.499
397.304
397.113
396.924
396.738
396.553
396.371
396.19
396.011
395.834
395.658
395.484
395.312
395.142
394.975
394.811
394.651
394.496
394.348
394.449
394.558
394.663
394.762
394.854
400
400
400
400
400
399.822
399.623
399.412
399.195
398.976
398.756
398.539
398.324
398.112
397.904
397.701
397.502
397.307
397.115
396.925
396.738
396.553
396.37
396.189
396.009
395.831
395.655
395.48
395.307
395.137
394.969
394.803
394.642
394.487
394.337
394.438
394.546
394.652
394.751
394.842
400
400
400
400
400
399.822
399.623
399.412
399.195
398.975
398.755
398.536
398.321
398.108
397.899
397.694
397.494
397.297
397.103
396.912
396.723
396.535
396.35
396.166
395.984
395.804
395.625
395.448
395.273
395.099
394.928
394.76
394.596
394.437
394.284
394.385
394.493
394.599
394.698
394.789
400
400
400
400
400
399.822
399.623
399.411
399.193
398.971
398.749
398.527
398.308
398.091
397.878
397.668
397.462
397.259
397.059
396.861
396.665
396.471
396.278
396.087
395.897
395.709
395.522
395.336
395.152
394.97
394.79
394.612
394.439
394.27
394.107
394.21
394.319
394.426
394.524
394.617
400
400
400
400
400
399.818
399.612
399.392
399.162
398.929
398.693
398.457
398.222
397.989
397.757
397.529
397.302
397.079
396.857
396.637
396.418
396.201
395.984
395.768
395.554
395.34
395.127
394.916
394.705
394.497
394.29
394.085
393.884
393.688
393.499
393.614
393.736
393.854
393.961
394.063
400
400
400
400
399.999
399.787
399.543
399.279
399.004
398.721
398.436
398.149
397.861
397.575
397.29
397.006
396.725
396.446
396.168
395.892
395.616
395.341
395.067
394.793
394.52
394.248
393.976
393.706
393.436
393.169
392.903
392.64
392.382
392.131
391.891
392.139
392.376
392.588
392.775
392.939
400
400
400
400
400
399.863
399.704
399.526
399.331
399.122
398.902
398.673
398.437
398.196
397.949
397.7
397.448
397.194
396.938
396.681
396.423
396.165
395.905
395.645
395.384
395.121
394.859
394.597
394.335
394.075
393.817
393.563
393.313
393.07
392.836
392.91
393.004
393.108
393.214
393.312
400
400
400
400
400
399.882
399.749
399.602
399.444
399.277
399.102
398.921
398.735
398.546
398.354
398.16
397.965
397.769
397.572
397.374
397.177
396.979
396.781
396.583
396.384
396.185
395.986
395.787
395.589
395.393
395.198
395.005
394.816
394.631
394.451
394.452
394.466
394.492
394.524
394.559
400
400
400
400
400
399.885
399.756
399.616
399.465
399.307
399.143
398.975
398.803
398.629
398.454
398.278
398.102
397.925
397.749
397.573
397.398
397.223
397.049
396.875
396.701
396.528
396.355
396.182
396.011
395.841
395.673
395.508
395.346
395.188
395.034
395.036
395.049
395.071
395.098
395.129
400
400
400
400
400
399.885
399.756
399.616
399.466
399.31
399.148
398.982
398.813
398.643
398.471
398.3
398.128
397.957
397.786
397.617
397.448
397.28
397.114
396.947
396.781
396.615
396.451
396.287
396.124
395.963
395.804
395.648
395.495
395.347
395.202
395.207
395.222
395.245
395.272
395.305
400
400
400
400
400
399.885
399.757
399.617
399.467
399.311
399.149
398.983
398.815
398.646
398.476
398.305
398.135
397.965
397.796
397.628
397.462
397.296
397.132
396.968
396.804
396.641
396.479
396.317
396.157
395.999
395.844
395.691
395.541
395.395
395.254
395.26
395.276
395.299
395.328
395.36
400
400
400
400
400
399.885
399.756
399.616
399.466
399.309
399.147
398.981
398.813
398.643
398.473
398.302
398.132
397.963
397.794
397.627
397.461
397.296
397.132
396.968
396.805
396.643
396.481
396.321
396.161
396.004
395.849
395.697
395.548
395.404
395.263
395.27
395.286
395.31
395.338
395.372
400
400
400
400
400
399.885
399.756
399.616
399.466
399.31
399.148
398.982
398.814
398.644
398.474
398.304
398.134
397.964
397.796
397.629
397.463
397.299
397.135
396.972
396.809
396.646
396.485
396.325
396.166
396.009
395.854
395.703
395.554
395.41
395.269
395.276
395.292
395.316
395.345
395.379
400
400
400
400
400
399.885
399.756
399.616
399.466
399.309
399.147
398.981
398.813
398.644
398.473
398.303
398.133
397.964
397.796
397.629
397.463
397.299
397.135
396.972
396.809
396.646
396.485
396.325
396.166
396.009
395.855
395.703
395.555
395.41
395.27
395.277
395.293
395.317
395.346
395.38
400
400
400
400
400
399.885
399.757
399.617
399.467
399.31
399.148
398.983
398.815
398.646
398.476
398.306
398.136
397.967
397.799
397.633
397.467
397.303
397.139
396.976
396.813
396.651
396.49
396.33
396.171
396.015
395.86
395.708
395.56
395.416
395.275
395.282
395.298
395.322
395.351
395.385
400
400
400
400
400
399.885
399.757
399.617
399.468
399.311
399.149
398.984
398.816
398.647
398.477
398.307
398.138
397.969
397.801
397.635
397.469
397.305
397.141
396.978
396.816
396.654
396.492
396.333
396.174
396.017
395.863
395.711
395.563
395.418
395.278
395.285
395.301
395.325
395.354
395.387
400
400
400
400
400
399.886
399.758
399.618
399.469
399.312
399.151
398.986
398.818
398.649
398.48
398.31
398.141
397.973
397.806
397.639
397.474
397.309
397.146
396.983
396.82
396.658
396.498
396.338
396.179
396.023
395.868
395.717
395.568
395.424
395.283
395.29
395.306
395.33
395.359
395.393
400
400
400
400
400
399.886
399.758
399.618
399.469
399.313
399.152
398.987
398.819
398.651
398.481
398.312
398.143
397.975
397.808
397.641
397.476
397.311
397.148
396.985
396.822
396.661
396.5
396.34
396.182
396.025
395.871
395.719
395.571
395.426
395.286
395.292
395.309
395.333
395.362
395.395
400
400
400
400
400
399.886
399.759
399.619
399.471
399.315
399.154
398.989
398.821
398.653
398.484
398.315
398.146
397.978
397.811
397.644
397.478
397.313
397.149
396.987
396.825
396.663
396.502
396.343
396.185
396.028
395.874
395.723
395.574
395.429
395.289
395.295
395.312
395.336
395.365
395.398
400
400
400
400
400
399.886
399.759
399.62
399.472
399.316
399.155
398.99
398.822
398.654
398.485
398.316
398.147
397.979
397.811
397.644
397.478
397.313
397.149
396.987
396.825
396.664
396.503
396.344
396.186
396.029
395.875
395.724
395.575
395.43
395.289
395.296
395.312
395.336
395.365
395.399
400
400
400
400
400
399.886
399.759
399.621
399.472
399.317
399.156
398.991
398.824
398.655
398.486
398.316
398.148
397.98
397.812
397.645
397.478
397.313
397.15
396.987
396.825
396.664
396.504
396.345
396.187
396.031
395.877
395.725
395.576
395.431
395.29
395.297
395.313
395.337
395.366
395.4
400
400
400
400
400
399.887
399.76
399.621
399.473
399.318
399.157
398.992
398.825
398.656
398.486
398.317
398.148
397.98
397.812
397.645
397.479
397.314
397.15
396.988
396.826
396.665
396.505
396.346
396.188
396.032
395.878
395.726
395.577
395.431
395.29
395.296
395.313
395.337
395.365
395.399
400
400
400
400
400
399.887
399.76
399.622
399.474
399.318
399.157
398.992
398.825
398.656
398.486
398.317
398.148
397.979
397.812
397.645
397.478
397.314
397.15
396.988
396.826
396.665
396.505
396.347
396.189
396.032
395.878
395.726
395.577
395.431
395.289
395.295
395.312
395.336
395.364
395.398
400
400
400
400
400
399.887
399.761
399.622
399.474
399.319
399.158
398.993
398.825
398.656
398.487
398.317
398.148
397.979
397.812
397.645
397.479
397.314
397.151
396.988
396.827
396.666
396.506
396.347
396.19
396.033
395.878
395.726
395.577
395.43
395.288
395.295
395.311
395.335
395.363
395.397
400
400
400
400
400
399.887
399.761
399.623
399.475
399.319
399.158
398.993
398.825
398.656
398.486
398.316
398.147
397.979
397.811
397.644
397.479
397.314
397.151
396.988
396.826
396.666
396.506
396.346
396.188
396.032
395.877
395.724
395.574
395.427
395.285
395.291
395.307
395.331
395.36
395.393
400
400
400
400
400
399.887
399.761
399.623
399.475
399.32
399.159
398.994
398.826
398.656
398.486
398.316
398.147
397.979
397.811
397.645
397.479
397.315
397.151
396.988
396.826
396.665
396.505
396.346
396.187
396.03
395.875
395.722
395.572
395.425
395.282
395.288
395.304
395.328
395.357
395.39
400
400
400
400
400
399.887
399.761
399.623
399.475
399.32
399.159
398.994
398.826
398.656
398.486
398.316
398.146
397.978
397.81
397.644
397.478
397.314
397.15
396.986
396.824
396.663
396.502
396.342
396.184
396.026
395.871
395.717
395.566
395.419
395.275
395.282
395.298
395.321
395.35
395.384
400
400
400
400
400
399.887
399.761
399.623
399.476
399.321
399.16
398.995
398.827
398.657
398.487
398.317
398.147
397.979
397.812
397.645
397.479
397.314
397.15
396.987
396.824
396.662
396.501
396.341
396.182
396.025
395.869
395.715
395.564
395.416
395.272
395.278
395.294
395.318
395.347
395.38
400
400
400
400
400
399.887
399.761
399.624
399.476
399.321
399.16
398.995
398.827
398.657
398.487
398.316
398.147
397.978
397.811
397.644
397.478
397.313
397.148
396.984
396.821
396.659
396.498
396.338
396.179
396.021
395.864
395.71
395.558
395.41
395.266
395.272
395.288
395.312
395.341
395.375
400
400
400
400
400
399.888
399.762
399.624
399.477
399.322
399.161
398.996
398.829
398.659
398.489
398.319
398.149
397.981
397.813
397.647
397.481
397.315
397.15
396.986
396.823
396.661
396.499
396.339
396.179
396.021
395.864
395.71
395.558
395.41
395.265
395.271
395.287
395.311
395.339
395.373
400
400
400
400
400
399.888
399.762
399.625
399.477
399.322
399.162
398.997
398.829
398.659
398.489
398.319
398.149
397.98
397.813
397.646
397.479
397.313
397.148
396.984
396.82
396.658
396.496
396.335
396.175
396.017
395.86
395.705
395.552
395.404
395.259
395.265
395.28
395.304
395.333
395.366
400
400
400
400
400
399.888
399.763
399.626
399.479
399.324
399.164
398.999
398.832
398.662
398.492
398.322
398.152
397.983
397.815
397.647
397.481
397.314
397.149
396.984
396.82
396.656
396.494
396.332
396.172
396.013
395.855
395.699
395.546
395.396
395.25
395.255
395.27
395.294
395.322
395.355
400
400
400
400
400
399.888
399.763
399.625
399.478
399.323
399.163
398.997
398.829
398.659
398.487
398.316
398.145
397.974
397.805
397.635
397.466
397.298
397.13
396.963
396.797
396.631
396.466
396.302
396.139
395.977
395.816
395.657
395.501
395.347
395.198
395.202
395.217
395.239
395.267
395.299
400
400
400
400
400
399.888
399.763
399.625
399.477
399.32
399.158
398.99
398.819
398.645
398.47
398.294
398.118
397.942
397.766
397.59
397.415
397.24
397.065
396.89
396.716
396.543
396.37
396.197
396.026
395.855
395.685
395.517
395.352
395.189
395.03
395.032
395.045
395.066
395.092
395.123
400
400
400
400
400
399.885
399.756
399.612
399.456
399.29
399.116
398.935
398.75
398.561
398.369
398.175
397.98
397.784
397.587
397.39
397.192
396.994
396.796
396.597
396.398
396.2
396.001
395.803
395.605
395.407
395.211
395.016
394.823
394.633
394.447
394.447
394.461
394.487
394.518
394.553
400
400
400
400
400
399.867
399.712
399.536
399.343
399.136
398.917
398.688
398.452
398.21
397.963
397.713
397.461
397.207
396.952
396.696
396.438
396.179
395.919
395.659
395.398
395.137
394.875
394.614
394.353
394.092
393.833
393.575
393.319
393.069
392.826
392.899
392.993
393.097
393.203
393.302
400
400
400
400
400
399.895
399.778
399.649
399.508
399.356
399.193
399.022
398.841
398.652
398.456
398.254
398.046
397.833
397.616
397.394
397.17
396.942
396.711
396.477
396.24
396.001
395.761
395.519
395.276
395.033
394.79
394.549
394.31
394.075
393.847
393.844
393.854
393.875
393.906
393.933
400
400
400
400
400
399.909
399.81
399.703
399.589
399.467
399.34
399.207
399.068
398.924
398.777
398.625
398.47
398.312
398.151
397.988
397.823
397.656
397.487
397.316
397.144
396.97
396.795
396.619
396.443
396.267
396.091
395.916
395.743
395.572
395.404
395.367
395.336
395.313
395.294
395.278
400
400
400
400
400
399.911
399.815
399.712
399.603
399.489
399.37
399.246
399.119
398.988
398.854
398.717
398.579
398.438
398.296
398.152
398.008
397.862
397.715
397.568
397.419
397.27
397.12
396.969
396.819
396.669
396.52
396.372
396.226
396.082
395.94
395.912
395.888
395.869
395.853
395.842
400
400
400
400
400
399.911
399.815
399.713
399.604
399.491
399.373
399.251
399.126
398.998
398.867
398.734
398.6
398.464
398.327
398.189
398.05
397.911
397.771
397.63
397.489
397.347
397.205
397.062
396.92
396.779
396.638
396.499
396.362
396.227
396.095
396.071
396.051
396.035
396.022
396.015
400
400
400
400
400
399.911
399.815
399.713
399.605
399.492
399.374
399.253
399.128
399.001
398.871
398.739
398.606
398.471
398.335
398.199
398.062
397.925
397.787
397.648
397.509
397.369
397.23
397.09
396.951
396.812
396.674
396.538
396.404
396.272
396.143
396.121
396.102
396.088
396.077
396.071
400
400
400
400
400
399.911
399.815
399.713
399.604
399.491
399.373
399.251
399.126
398.999
398.869
398.737
398.604
398.469
398.333
398.197
398.061
397.924
397.787
397.648
397.51
397.371
397.232
397.093
396.954
396.816
396.679
396.544
396.411
396.28
396.151
396.13
396.111
396.098
396.087
396.082
400
400
400
400
400
399.911
399.815
399.713
399.605
399.491
399.373
399.252
399.127
398.999
398.869
398.738
398.604
398.47
398.335
398.199
398.063
397.926
397.789
397.651
397.512
397.374
397.235
397.096
396.957
396.82
396.683
396.548
396.415
396.285
396.157
396.135
396.117
396.103
396.093
396.089
400
400
400
400
400
399.911
399.815
399.713
399.605
399.491
399.373
399.251
399.126
398.999
398.869
398.737
398.604
398.469
398.334
398.198
398.062
397.925
397.788
397.65
397.512
397.373
397.234
397.095
396.957
396.819
396.683
396.548
396.415
396.284
396.156