/*--------------------------------*- C++ -*----------------------------------*\
| =========                 |                                                 |
| \\      /  F ield         | OpenFOAM: The Open Source CFD Toolbox           |
|  \\    /   O peration     | Version:  5.0                                   |
|   \\  /    A nd           | Web:      www.OpenFOAM.org                      |
|    \\/     M anipulation  |                                                 |
\*---------------------------------------------------------------------------*/
FoamFile
{
    version     2.0;
    format      ascii;
    class       surfaceScalarField;
    location    "300/porous";
    object      phi;
}
// * * * * * * * * * * * * * * * * * * * * * * * * * * * * * * * * * * * * * //

dimensions      [1 0 -1 0 0 0 0];

internalField   nonuniform List<scalar> 
104700
(
7.63469e-05
2.58379e-06
8.7736e-05
4.58797e-05
1.53403e-06
2.89331e-05
3.349e-05
1.32405e-06
1.10657e-05
2.82039e-05
1.09915e-06
4.18698e-06
2.50882e-05
9.25619e-07
2.19001e-06
2.29209e-05
7.95643e-07
1.37166e-06
2.12657e-05
6.9608e-07
9.59129e-07
1.99381e-05
6.17638e-07
7.10016e-07
1.88402e-05
5.53769e-07
5.44132e-07
1.79117e-05
5.00404e-07
4.28085e-07
1.71129e-05
4.54876e-07
3.4389e-07
1.64163e-05
4.15386e-07
2.81187e-07
1.58021e-05
3.80676e-07
2.33555e-07
1.52555e-05
3.49838e-07
1.96798e-07
1.47652e-05
3.22196e-07
1.68086e-07
1.43225e-05
2.97241e-07
1.45433e-07
1.39205e-05
2.74576e-07
1.2742e-07
1.35536e-05
2.53889e-07
1.13001e-07
1.32173e-05
2.34931e-07
1.014e-07
1.29078e-05
2.175e-07
9.20218e-08
1.26219e-05
2.01428e-07
8.44165e-08
1.23571e-05
1.86575e-07
7.82272e-08
1.21111e-05
1.72825e-07
7.31752e-08
1.1882e-05
1.60078e-07
6.90403e-08
1.16681e-05
1.48253e-07
6.56421e-08
1.1468e-05
1.37279e-07
6.28353e-08
1.12804e-05
1.271e-07
6.04963e-08
1.11042e-05
1.17666e-07
5.85223e-08
1.09384e-05
1.08946e-07
5.68257e-08
1.07822e-05
1.00886e-07
5.53418e-08
1.06347e-05
9.34981e-08
5.40007e-08
1.04953e-05
8.66127e-08
5.27973e-08
1.03632e-05
8.05175e-08
5.16248e-08
1.02382e-05
7.42194e-08
5.07453e-08
1.01186e-05
7.00647e-08
4.94907e-08
1.00073e-05
6.13892e-08
4.99387e-08
9.89581e-06
6.49395e-08
4.65717e-08
9.79985e-06
3.69481e-08
5.90121e-08
9.6966e-06
8.03718e-08
2.28775e-08
-3.15906e-08
3.20147e-07
7.78123e-05
1.68802e-06
8.97501e-05
4.84263e-05
1.30124e-06
2.96188e-05
3.67847e-05
1.23874e-06
1.17269e-05
3.20157e-05
1.08313e-06
4.78499e-06
2.9323e-05
9.49936e-07
2.66843e-06
2.74966e-05
8.41374e-07
1.78063e-06
2.61194e-05
7.5101e-07
1.32234e-06
2.50213e-05
6.75267e-07
1.04048e-06
2.41151e-05
6.10633e-07
8.49258e-07
2.33484e-05
5.54652e-07
7.12521e-07
2.26869e-05
5.05546e-07
6.10776e-07
2.21076e-05
4.62014e-07
5.32743e-07
2.15937e-05
4.23087e-07
4.7141e-07
2.11333e-05
3.88024e-07
4.22203e-07
2.07173e-05
3.56251e-07
3.82027e-07
2.03385e-05
3.27315e-07
3.48724e-07
1.99914e-05
3.00853e-07
3.20745e-07
1.96718e-05
2.76572e-07
2.96956e-07
1.9376e-05
2.54228e-07
2.76509e-07
1.91011e-05
2.33621e-07
2.5876e-07
1.88447e-05
2.14583e-07
2.43214e-07
1.86049e-05
1.96971e-07
2.29484e-07
1.83798e-05
1.80663e-07
2.17261e-07
1.8168e-05
1.65557e-07
2.06301e-07
1.79683e-05
1.51568e-07
1.964e-07
1.77795e-05
1.38625e-07
1.87394e-07
1.76008e-05
1.26672e-07
1.79137e-07
1.74313e-05
1.15662e-07
1.71515e-07
1.72703e-05
1.05561e-07
1.64417e-07
1.71171e-05
9.63115e-08
1.57753e-07
1.69712e-05
8.79183e-08
1.51454e-07
1.68322e-05
8.01794e-08
1.45448e-07
1.66996e-05
7.33673e-08
1.39747e-07
1.65732e-05
6.63491e-08
1.34235e-07
1.64525e-05
6.1617e-08
1.29243e-07
1.63382e-05
5.15181e-08
1.24169e-07
1.62268e-05
5.5682e-08
1.20655e-07
1.61262e-05
1.8462e-08
1.19091e-07
1.60223e-05
8.48111e-08
9.9395e-08
-1.17737e-07
3.40615e-07
7.76222e-05
1.22991e-06
8.95025e-05
4.84082e-05
1.23644e-06
2.92788e-05
3.69389e-05
1.20918e-06
1.14989e-05
3.23082e-05
1.07743e-06
4.63645e-06
2.97455e-05
9.49173e-07
2.56345e-06
2.80398e-05
8.39594e-07
1.70742e-06
2.67759e-05
7.46495e-07
1.26841e-06
2.5785e-05
6.68118e-07
9.98027e-07
2.49806e-05
6.01613e-07
8.13427e-07
2.43105e-05
5.44571e-07
6.80248e-07
2.37408e-05
4.95076e-07
5.80162e-07
2.32485e-05
4.5165e-07
5.02617e-07
2.28174e-05
4.1316e-07
4.41068e-07
2.24354e-05
3.78738e-07
3.91249e-07
2.20937e-05
3.4771e-07
3.50268e-07
2.17854e-05
3.19553e-07
3.16091e-07
2.15051e-05
2.93854e-07
2.87253e-07
2.12487e-05
2.70287e-07
2.62676e-07
2.10128e-05
2.48589e-07
2.4154e-07
2.07947e-05
2.28548e-07
2.23223e-07
2.0592e-05
2.09992e-07
2.07234e-07
2.0403e-05
1.92779e-07
1.93188e-07
2.02261e-05
1.7679e-07
1.80777e-07
2.006e-05
1.61931e-07
1.69748e-07
1.99036e-05
1.48123e-07
1.59897e-07
1.97558e-05
1.35303e-07
1.51053e-07
1.9616e-05
1.23424e-07
1.4307e-07
1.94834e-05
1.12441e-07
1.35831e-07
1.93574e-05
1.02326e-07
1.29228e-07
1.92375e-05
9.302e-08
1.2317e-07
1.91233e-05
8.45212e-08
1.17586e-07
1.90145e-05
7.66174e-08
1.12406e-07
1.89107e-05
6.95581e-08
1.07619e-07
1.88117e-05
6.2202e-08
1.03108e-07
1.87173e-05
5.69507e-08
9.9132e-08
1.86274e-05
4.63082e-08
9.50398e-08
1.8541e-05
4.92902e-08
9.28621e-08
1.84598e-05
1.17989e-08
8.78231e-08
1.83788e-05
7.62434e-08
8.95824e-08
-1.32333e-07
1.91342e-07
7.73814e-05
8.69141e-07
8.96461e-05
4.81319e-05
1.03757e-06
2.94483e-05
3.66931e-05
1.04579e-06
1.16023e-05
3.21097e-05
9.57493e-07
4.70331e-06
2.95979e-05
8.57848e-07
2.60315e-06
2.79412e-05
7.66352e-07
1.72993e-06
2.67235e-05
6.85063e-07
1.27908e-06
2.57762e-05
6.14509e-07
1.00093e-06
2.50129e-05
5.53423e-07
8.11467e-07
2.43818e-05
5.00329e-07
6.75354e-07
2.38494e-05
4.5387e-07
5.7361e-07
2.33929e-05
4.12901e-07
4.9523e-07
2.29962e-05
3.76491e-07
4.33367e-07
2.26475e-05
3.43894e-07
3.83547e-07
2.2338e-05
3.1451e-07
3.42739e-07
2.20609e-05
2.87863e-07
3.0882e-07
2.18109e-05
2.63569e-07
2.80268e-07
2.15839e-05
2.41321e-07
2.5596e-07
2.13765e-05
2.20869e-07
2.35063e-07
2.11861e-05
2.02008e-07
2.16937e-07
2.10105e-05
1.84571e-07
2.01086e-07
2.08477e-05
1.68423e-07
1.87125e-07
2.06963e-05
1.53448e-07
1.74746e-07
2.0555e-05
1.39554e-07
1.63704e-07
2.04226e-05
1.26666e-07
1.53798e-07
2.02984e-05
1.1472e-07
1.44864e-07
2.01813e-05
1.03669e-07
1.36768e-07
2.00709e-05
9.34668e-08
1.29392e-07
1.99665e-05
8.40817e-08
1.22645e-07
1.98677e-05
7.54514e-08
1.16441e-07
1.97739e-05
6.75685e-08
1.10714e-07
1.96849e-05
6.02267e-08
1.05395e-07
1.96003e-05
5.36568e-08
1.00464e-07
1.95199e-05
4.67969e-08
9.58095e-08
1.94434e-05
4.18807e-08
9.16063e-08
1.93703e-05
3.21053e-08
8.72767e-08
1.93003e-05
3.47046e-08
8.46266e-08
1.92327e-05
2.25605e-09
7.71026e-08
1.91626e-05
5.84899e-08
8.78267e-08
-1.10493e-07
9.48032e-08
7.72584e-05
6.76336e-07
8.96011e-05
4.79939e-05
9.27346e-07
2.93747e-05
3.65735e-05
9.71905e-07
1.14944e-05
3.20109e-05
9.16791e-07
4.6033e-06
2.95174e-05
8.35222e-07
2.51607e-06
2.78758e-05
7.5205e-07
1.65594e-06
2.66708e-05
6.7422e-07
1.2158e-06
2.57347e-05
6.0465e-07
9.45995e-07
2.49817e-05
5.43508e-07
7.62924e-07
2.43603e-05
4.90043e-07
6.31638e-07
2.38374e-05
4.43241e-07
5.33521e-07
2.33904e-05
4.02095e-07
4.57868e-07
2.30031e-05
3.65709e-07
3.98065e-07
2.26638e-05
3.33324e-07
3.49815e-07
2.23638e-05
3.04312e-07
3.10219e-07
2.20963e-05
2.78159e-07
2.77252e-07
2.18559e-05
2.54448e-07
2.49466e-07
2.16386e-05
2.3284e-07
2.25796e-07
2.1441e-05
2.1306e-07
2.05442e-07
2.12603e-05
1.94886e-07
1.87796e-07
2.10944e-05
1.78134e-07
1.72388e-07
2.09413e-05
1.62655e-07
1.58842e-07
2.07995e-05
1.48328e-07
1.46866e-07
2.06678e-05
1.35052e-07
1.3622e-07
2.0545e-05
1.22746e-07
1.2671e-07
2.04302e-05
1.11343e-07
1.18177e-07
2.03226e-05
1.0079e-07
1.1049e-07
2.02215e-05
9.10381e-08
1.03537e-07
2.01263e-05
8.20505e-08
9.72239e-08
2.00365e-05
7.37651e-08
9.14711e-08
1.99517e-05
6.61699e-08
8.62131e-08
1.98715e-05
5.90781e-08
8.13801e-08
1.97955e-05
5.27018e-08
7.69396e-08
1.97234e-05
4.61109e-08
7.2803e-08
1.96549e-05
4.12914e-08
6.9049e-08
1.95893e-05
3.24604e-08
6.5274e-08
1.9527e-05
3.4185e-08
6.28496e-08
1.94661e-05
8.15754e-09
5.49787e-08
1.94017e-05
5.18755e-08
7.10187e-08
-6.97706e-08
2.48133e-08
7.71839e-05
5.19234e-07
8.96399e-05
4.78783e-05
7.76906e-07
2.9456e-05
3.64421e-05
8.3619e-07
1.1572e-05
3.18787e-05
8.04959e-07
4.67516e-06
2.93914e-05
7.43187e-07
2.57942e-06
2.77584e-05
6.74627e-07
1.71039e-06
2.65629e-05
6.07811e-07
1.26191e-06
2.56361e-05
5.46582e-07
9.84848e-07
2.48919e-05
4.91928e-07
7.95748e-07
2.42788e-05
4.43663e-07
6.59541e-07
2.37634e-05
4.01151e-07
5.57445e-07
2.33233e-05
3.63638e-07
4.78583e-07
2.29424e-05
3.30398e-07
4.16185e-07
2.26091e-05
3.00785e-07
3.65826e-07
2.23147e-05
2.7425e-07
3.24503e-07
2.20524e-05
2.50335e-07
2.90107e-07
2.18171e-05
2.28662e-07
2.61124e-07
2.16046e-05
2.08924e-07
2.36437e-07
2.14115e-05
1.90869e-07
2.15207e-07
2.12353e-05
1.74291e-07
1.96794e-07
2.10737e-05
1.59022e-07
1.80702e-07
2.09249e-05
1.44925e-07
1.66541e-07
2.07874e-05
1.31885e-07
1.54002e-07
2.06598e-05
1.19812e-07
1.42836e-07
2.05411e-05
1.0863e-07
1.3284e-07
2.04303e-05
9.8275e-08
1.23848e-07
2.03266e-05
8.86977e-08
1.15724e-07
2.02295e-05
7.98519e-08
1.08353e-07
2.01382e-05
7.1702e-08
1.0164e-07
2.00523e-05
6.41909e-08
9.55e-08
1.99713e-05
5.73097e-08
8.98656e-08
1.98948e-05
5.08971e-08
8.46723e-08
1.98224e-05
4.51494e-08
7.98712e-08
1.97539e-05
3.92902e-08
7.53974e-08
1.96889e-05
3.50318e-08
7.12475e-08
1.96264e-05
2.7698e-08
6.7194e-08
1.95674e-05
2.91091e-08
6.41498e-08
1.95099e-05
9.92564e-09
5.57357e-08
1.94457e-05
4.34215e-08
7.2648e-08
-3.71913e-08
1.26398e-09
7.71344e-05
4.18799e-07
8.96327e-05
4.78011e-05
6.65806e-07
2.94444e-05
3.63597e-05
7.38728e-07
1.15389e-05
3.18013e-05
7.28504e-07
4.63483e-06
2.93215e-05
6.84088e-07
2.53887e-06
2.76961e-05
6.27792e-07
1.67223e-06
2.65073e-05
5.69486e-07
1.22714e-06
2.55861e-05
5.14088e-07
9.53664e-07
2.48466e-05
4.63518e-07
7.6797e-07
2.42372e-05
4.18245e-07
6.348e-07
2.3725e-05
3.78058e-07
5.35321e-07
2.32875e-05
3.42467e-07
4.58664e-07
2.29089e-05
3.10905e-07
3.98102e-07
2.25776e-05
2.82817e-07
3.49262e-07
2.22849e-05
2.57705e-07
3.09188e-07
2.20243e-05
2.3514e-07
2.75822e-07
2.17905e-05
2.14758e-07
2.47688e-07
2.15795e-05
1.96258e-07
2.23705e-07
2.13879e-05
1.7939e-07
2.03062e-07
2.12131e-05
1.63947e-07
1.85145e-07
2.10529e-05
1.49762e-07
1.69476e-07
2.09054e-05
1.36696e-07
1.5568e-07
2.07692e-05
1.24634e-07
1.4346e-07
2.0643e-05
1.13485e-07
1.32577e-07
2.05256e-05
1.0317e-07
1.22839e-07
2.04161e-05
9.36271e-08
1.14083e-07
2.03139e-05
8.48046e-08
1.0618e-07
2.0218e-05
7.66556e-08
9.90193e-08
2.01281e-05
6.91445e-08
9.25075e-08
2.00435e-05
6.22186e-08
8.65643e-08
1.99638e-05
5.58686e-08
8.1125e-08
1.98886e-05
4.99611e-08
7.61261e-08
1.98176e-05
4.46677e-08
7.15159e-08
1.97503e-05
3.93672e-08
6.72501e-08
1.96865e-05
3.54793e-08
6.32672e-08
1.96254e-05
2.93708e-08
5.9493e-08
1.95678e-05
3.02356e-08
5.64725e-08
1.95128e-05
1.64694e-08
4.84708e-08
1.94504e-05
4.07654e-08
6.50575e-08
-1.09298e-08
-1.71526e-08
7.71072e-05
3.33323e-07
8.9645e-05
4.77479e-05
5.50838e-07
2.94742e-05
3.62918e-05
6.23614e-07
1.15713e-05
3.17276e-05
6.24067e-07
4.66859e-06
2.92469e-05
5.91962e-07
2.57284e-06
2.76232e-05
5.46644e-07
1.70482e-06
2.64375e-05
4.97717e-07
1.25747e-06
2.55201e-05
4.50164e-07
9.8138e-07
2.47843e-05
4.06178e-07
7.93048e-07
2.41787e-05
3.66494e-07
6.57389e-07
2.367e-05
3.31118e-07
5.55648e-07
2.32357e-05
2.99724e-07
4.76991e-07
2.28601e-05
2.71866e-07
4.14686e-07
2.25315e-05
2.4708e-07
3.64339e-07
2.22413e-05
2.24937e-07
3.2297e-07
2.19829e-05
2.05057e-07
2.88492e-07
2.17511e-05
1.8712e-07
2.59403e-07
2.15419e-05
1.70853e-07
2.34597e-07
2.1352e-05
1.56035e-07
2.13242e-07
2.11788e-05
1.4248e-07
1.94704e-07
2.102e-05
1.30037e-07
1.7849e-07
2.08739e-05
1.18583e-07
1.64212e-07
2.0739e-05
1.08016e-07
1.5156e-07
2.06139e-05
9.82515e-08
1.40289e-07
2.04977e-05
8.92226e-08
1.30195e-07
2.03893e-05
8.08727e-08
1.21112e-07
2.02881e-05
7.3156e-08
1.12906e-07
2.01932e-05
6.60305e-08
1.0546e-07
2.01042e-05
5.94658e-08
9.86782e-08
2.00206e-05
5.34162e-08
9.24812e-08
1.99418e-05
4.78769e-08
8.67937e-08
1.98674e-05
4.27413e-08
8.15602e-08
1.97972e-05
3.81599e-08
7.67138e-08
1.97307e-05
3.36543e-08
7.22341e-08
1.96678e-05
3.03751e-08
6.8e-08
1.96075e-05
2.5598e-08
6.40648e-08
1.95508e-05
2.63109e-08
6.06498e-08
1.94976e-05
1.7046e-08
5.26185e-08
1.94348e-05
3.51684e-08
6.83556e-08
3.40436e-09
-1.90725e-08
7.70866e-05
2.69007e-07
8.96444e-05
4.77072e-05
4.56066e-07
2.94742e-05
3.62416e-05
5.26899e-07
1.15623e-05
3.16757e-05
5.36106e-07
4.65387e-06
2.91969e-05
5.15226e-07
2.55554e-06
2.75768e-05
4.80367e-07
1.68639e-06
2.63951e-05
4.40406e-07
1.23897e-06
2.54816e-05
4.00232e-07
9.63466e-07
2.47494e-05
3.62254e-07
7.76108e-07
2.41468e-05
3.2749e-07
6.41601e-07
2.36407e-05
2.96198e-07
5.41065e-07
2.32086e-05
2.68254e-07
4.63577e-07
2.28347e-05
2.43364e-07
4.02366e-07
2.25076e-05
2.21178e-07
3.53015e-07
2.22186e-05
2.01347e-07
3.1254e-07
2.19613e-05
1.83552e-07
2.78853e-07
2.17304e-05
1.67511e-07
2.50459e-07
2.1522e-05
1.52987e-07
2.26263e-07
2.13329e-05
1.39778e-07
2.05441e-07
2.11603e-05
1.27717e-07
1.87369e-07
2.10021e-05
1.16664e-07
1.71564e-07
2.08565e-05
1.06507e-07
1.57647e-07
2.0722e-05
9.715e-08
1.45313e-07
2.05975e-05
8.8516e-08
1.34327e-07
2.04816e-05
8.05415e-08
1.24487e-07
2.03737e-05
7.31728e-08
1.15636e-07
2.02729e-05
6.63673e-08
1.07639e-07
2.01784e-05
6.00859e-08
1.00387e-07
2.00898e-05
5.42992e-08
9.37865e-08
2.00065e-05
4.89693e-08
8.7758e-08
1.9928e-05
4.40901e-08
8.22307e-08
1.98541e-05
3.95797e-08
7.71523e-08
1.97842e-05
3.55636e-08
7.24515e-08
1.9718e-05
3.16837e-08
6.81262e-08
1.96556e-05
2.88436e-08
6.40166e-08
1.95958e-05
2.50562e-08
6.02778e-08
1.95398e-05
2.54775e-08
5.68986e-08
1.94883e-05
1.92596e-08
4.9274e-08
1.94267e-05
3.22024e-08
6.45008e-08
1.27522e-08
-2.52579e-08
7.7075e-05
2.11936e-07
8.96488e-05
4.76803e-05
3.65207e-07
2.94855e-05
3.62044e-05
4.27615e-07
1.15751e-05
3.16333e-05
4.39349e-07
4.66786e-06
2.91524e-05
4.25255e-07
2.57086e-06
2.75322e-05
3.98263e-07
1.70232e-06
2.63516e-05
3.66073e-07
1.25492e-06
2.54398e-05
3.33062e-07
9.79005e-07
2.47096e-05
3.01508e-07
7.9096e-07
2.4109e-05
2.72444e-07
6.55609e-07
2.36049e-05
2.46202e-07
5.54154e-07
2.31746e-05
2.22743e-07
4.75738e-07
2.28025e-05
2.01853e-07
4.13629e-07
2.2477e-05
1.8325e-07
3.63434e-07
2.21895e-05
1.66645e-07
3.22179e-07
2.19335e-05
1.51768e-07
2.87784e-07
2.17039e-05
1.38378e-07
2.58753e-07
2.14967e-05
1.2627e-07
2.33986e-07
2.13085e-05
1.15272e-07
2.12656e-07
2.11369e-05
1.0524e-07
1.94133e-07
2.09795e-05
9.60554e-08
1.77924e-07
2.08348e-05
8.76199e-08
1.63646e-07
2.07011e-05
7.98532e-08
1.50994e-07
2.05772e-05
7.26895e-08
1.39718e-07
2.0462e-05
6.60748e-08
1.29618e-07
2.03547e-05
5.99648e-08
1.20531e-07
2.02544e-05
5.43222e-08
1.1232e-07
2.01605e-05
4.91158e-08
1.04871e-07
2.00724e-05
4.43211e-08
9.80873e-08
1.99896e-05
3.99071e-08
9.1889e-08
1.99116e-05
3.58718e-08
8.62016e-08
1.98381e-05
3.21544e-08
8.09738e-08
1.97687e-05
2.88581e-08
7.61259e-08
1.97029e-05
2.57269e-08
7.16692e-08
1.96409e-05
2.34538e-08
6.74081e-08
1.95818e-05
2.06349e-08
6.35729e-08
1.95263e-05
2.10103e-08
5.99636e-08
1.94761e-05
1.71256e-08
5.23466e-08
1.94144e-05
2.67469e-08
6.70932e-08
1.53337e-08
-2.42612e-08
7.70659e-05
1.63594e-07
8.96492e-05
4.76591e-05
2.84858e-07
2.94871e-05
3.61757e-05
3.3775e-07
1.15733e-05
3.16013e-05
3.50611e-07
4.66307e-06
2.91199e-05
3.42389e-07
2.56427e-06
2.75008e-05
3.22914e-07
1.69442e-06
2.63223e-05
2.98448e-07
1.2462e-06
2.54128e-05
2.72676e-07
9.69888e-07
2.46849e-05
2.47616e-07
7.81771e-07
2.40865e-05
2.24259e-07
6.46581e-07
2.35843e-05
2.0299e-07
5.45445e-07
2.31557e-05
1.8386e-07
4.67443e-07
2.2785e-05
1.66751e-07
4.05797e-07
2.24607e-05
1.5147e-07
3.56082e-07
2.21742e-05
1.37804e-07
3.15301e-07
2.19191e-05
1.25546e-07
2.81363e-07
2.16902e-05
1.14509e-07
2.52759e-07
2.14836e-05
1.0453e-07
2.28386e-07
2.1296e-05
9.54679e-08
2.07416e-07
2.11248e-05
8.72067e-08
1.89219e-07
2.09679e-05
7.96486e-08
1.73308e-07
2.08235e-05
7.27128e-08
1.59297e-07
2.06901e-05
6.63325e-08
1.46884e-07
2.05665e-05
6.04524e-08
1.35824e-07
2.04517e-05
5.50269e-08
1.25921e-07
2.03446e-05
5.00179e-08
1.17009e-07
2.02446e-05
4.53949e-08
1.08958e-07
2.01509e-05
4.11306e-08
1.01655e-07
2.0063e-05
3.72044e-08
9.5006e-08
1.99804e-05
3.35924e-08
8.89319e-08
1.99026e-05
3.02917e-08
8.3361e-08
1.98293e-05
2.72588e-08
7.82425e-08
1.97601e-05
2.45743e-08
7.34968e-08
1.96946e-05
2.20595e-08
6.91459e-08
1.96328e-05
2.02268e-08
6.49703e-08
1.95741e-05
1.81108e-08
6.12621e-08
1.95191e-05
1.83333e-08
5.76899e-08
1.947e-05
1.58797e-08
5.03294e-08
1.94093e-05
2.25947e-08
6.48078e-08
1.58445e-08
-2.73898e-08
7.70605e-05
1.18922e-07
8.96509e-05
4.76453e-05
2.08343e-07
2.94917e-05
3.61555e-05
2.4902e-07
1.15785e-05
3.15776e-05
2.59885e-07
4.66868e-06
2.90944e-05
2.54857e-07
2.5707e-06
2.74749e-05
2.40971e-07
1.7015e-06
2.62966e-05
2.22998e-07
1.25368e-06
2.53879e-05
2.038e-07
9.77572e-07
2.46611e-05
1.8499e-07
7.89471e-07
2.40638e-05
1.67388e-07
6.54151e-07
2.35627e-05
1.51334e-07
5.52775e-07
2.31352e-05
1.36892e-07
4.7446e-07
2.27655e-05
1.23987e-07
4.12456e-07
2.24421e-05
1.12478e-07
3.62363e-07
2.21565e-05
1.02204e-07
3.21202e-07
2.19022e-05
9.30063e-08
2.86891e-07
2.1674e-05
8.47396e-08
2.57932e-07
2.1468e-05
7.72771e-08
2.33226e-07
2.1281e-05
7.0511e-08
2.11948e-07
2.11104e-05
6.435e-08
1.93468e-07
2.09541e-05
5.87192e-08
1.77297e-07
2.08102e-05
5.35557e-08
1.63052e-07
2.06773e-05
4.88082e-08
1.50425e-07
2.05541e-05
4.44351e-08
1.39172e-07
2.04397e-05
4.04011e-08
1.29093e-07
2.0333e-05
3.66778e-08
1.20023e-07
2.02333e-05
3.32415e-08
1.11828e-07
2.014e-05
3.00721e-08
1.04391e-07
2.00524e-05
2.71551e-08
9.76213e-08
1.99701e-05
2.44726e-08
9.14365e-08
1.98926e-05
2.20237e-08
8.57624e-08
1.98195e-05
1.97794e-08
8.0548e-08
1.97506e-05
1.77998e-08
7.57101e-08
1.96854e-05
1.59679e-08
7.12776e-08
1.9624e-05
1.46447e-08
6.70117e-08
1.95656e-05
1.31991e-08
6.32433e-08
1.9511e-05
1.34006e-08
5.95386e-08
1.94627e-05
1.20082e-08
5.21724e-08
1.94021e-05
1.67609e-08
6.6406e-08
1.30538e-08
-2.65454e-08
7.70565e-05
7.79159e-08
8.96512e-05
4.7635e-05
1.3693e-07
2.94929e-05
3.61408e-05
1.64867e-07
1.15784e-05
3.15604e-05
1.72951e-07
4.66733e-06
2.90763e-05
1.70477e-07
2.56847e-06
2.74569e-05
1.61877e-07
1.6985e-06
2.62795e-05
1.50343e-07
1.25007e-06
2.53719e-05
1.37812e-07
9.73537e-07
2.46463e-05
1.25401e-07
7.85171e-07
2.40503e-05
1.13697e-07
6.49725e-07
2.35503e-05
1.02959e-07
5.48337e-07
2.31239e-05
9.32551e-08
4.70094e-07
2.27551e-05
8.45519e-08
4.08223e-07
2.24325e-05
7.67673e-08
3.58303e-07
2.21476e-05
6.9802e-08
3.1734e-07
2.18938e-05
6.35551e-08
2.83235e-07
2.16661e-05
5.79333e-08
2.54486e-07
2.14605e-05
5.2854e-08
2.29985e-07
2.12739e-05
4.8246e-08
2.08902e-07
2.11036e-05
4.40494e-08
1.90607e-07
2.09475e-05
4.02133e-08
1.74606e-07
2.08038e-05
3.66965e-08
1.60517e-07
2.06711e-05
3.3464e-08
1.48035e-07
2.05482e-05
3.04872e-08
1.36914e-07
2.04339e-05
2.77422e-08
1.26954e-07
2.03274e-05
2.52095e-08
1.17993e-07
2.02278e-05
2.28728e-08
1.09896e-07
2.01346e-05
2.07183e-08
1.02552e-07
2.00472e-05
1.87356e-08
9.58635e-08
1.9965e-05
1.69127e-08
8.9756e-08
1.98876e-05
1.52497e-08
8.41521e-08
1.98147e-05
1.37278e-08
7.9004e-08
1.97459e-05
1.23863e-08
7.42284e-08
1.96808e-05
1.11552e-08
6.98571e-08
1.96196e-05
1.02622e-08
6.56416e-08
1.95615e-05
9.32922e-09
6.19429e-08
1.95072e-05
9.43566e-09
5.82673e-08
1.94595e-05
8.65387e-09
5.1037e-08
1.93995e-05
1.15624e-08
6.51455e-08
9.56215e-09
-2.81952e-08
7.70544e-05
3.84661e-08
8.96517e-05
4.76291e-05
6.76207e-08
2.94946e-05
3.61318e-05
8.17627e-08
1.15803e-05
3.15496e-05
8.58603e-08
4.66932e-06
2.90645e-05
8.47275e-08
2.5708e-06
2.74448e-05
8.04674e-08
1.70115e-06
2.62675e-05
7.4698e-08
1.25298e-06
2.53602e-05
6.84021e-08
9.7663e-07
2.46351e-05
6.2154e-08
7.88374e-07
2.40396e-05
5.62591e-08
6.52967e-07
2.35401e-05
5.08537e-08
5.51557e-07
2.31142e-05
4.59753e-08
4.73244e-07
2.27459e-05
4.16079e-08
4.11267e-07
2.24237e-05
3.771e-08
3.61217e-07
2.21392e-05
3.42301e-08
3.20108e-07
2.18857e-05
3.11162e-08
2.85852e-07
2.16584e-05
2.83197e-08
2.5695e-07
2.14532e-05
2.5798e-08
2.32299e-07
2.12668e-05
2.35137e-08
2.11073e-07
2.10968e-05
2.14364e-08
1.9264e-07
2.0941e-05
1.95401e-08
1.76513e-07
2.07975e-05
1.7803e-08
1.62309e-07
2.06651e-05
1.62074e-08
1.49719e-07
2.05423e-05
1.47385e-08
1.38499e-07
2.04282e-05
1.33849e-08
1.28449e-07
2.03219e-05
1.21362e-08
1.19407e-07
2.02226e-05
1.09848e-08
1.11235e-07
2.01295e-05
9.92362e-09
1.03824e-07
2.00422e-05
8.94702e-09
9.70743e-08
1.99602e-05
8.04988e-09
9.09078e-08
1.9883e-05
7.23178e-09
8.52516e-08
1.98102e-05
6.48467e-09
8.00565e-08
1.97415e-05
5.82764e-09
7.52348e-08
1.96766e-05
5.22863e-09
7.08226e-08
1.96155e-05
4.79815e-09
6.65639e-08
1.95576e-05
4.36022e-09
6.28368e-08
1.95035e-05
4.42922e-09
5.90994e-08
1.94562e-05
4.1111e-09
5.18643e-08
1.93963e-05
5.56478e-09
6.58599e-08
4.75202e-09
-2.7812e-08
7.70533e-05
-6.01346e-14
8.96518e-05
4.76259e-05
-1.86969e-13
2.9495e-05
3.61273e-05
-1.57644e-13
1.15804e-05
3.15442e-05
-4.64184e-14
4.66896e-06
2.90587e-05
1.80311e-14
2.57015e-06
2.7439e-05
3.85514e-14
1.70023e-06
2.62619e-05
6.09172e-15
1.25181e-06
2.5355e-05
1.89367e-14
9.75264e-07
2.46303e-05
-1.27627e-13
7.86864e-07
2.40352e-05
-1.55328e-13
6.51362e-07
2.35362e-05
-8.2285e-14
5.49898e-07
2.31106e-05
-5.46617e-14
4.71568e-07
2.27426e-05
7.87438e-14
4.09599e-07
2.24207e-05
-8.35997e-14
3.59578e-07
2.21364e-05
-6.45117e-15
3.18513e-07
2.18832e-05
-2.21288e-14
2.8431e-07
2.16561e-05
5.75066e-16
2.55466e-07
2.1451e-05
1.40315e-13
2.30877e-07
2.12648e-05
1.9386e-13
2.0971e-07
2.10949e-05
2.24355e-13
1.91339e-07
2.09392e-05
3.61267e-13
1.7527e-07
2.07959e-05
5.84947e-13
1.61119e-07
2.06635e-05
5.73532e-13
1.48581e-07
2.05408e-05
7.29698e-13
1.3741e-07
2.04268e-05
1.07487e-12
1.27405e-07
2.03205e-05
1.21928e-12
1.18404e-07
2.02212e-05
1.30589e-12
1.10271e-07
2.01283e-05
1.81999e-12
1.02896e-07
2.0041e-05
2.29013e-12
9.61794e-08
1.9959e-05
2.37631e-12
9.00456e-08
1.98818e-05
2.97016e-12
8.44201e-08
1.98091e-05
3.45693e-12
7.92526e-08
1.97404e-05
3.94498e-12
7.44581e-08
1.96756e-05
4.18769e-12
7.00738e-08
1.96145e-05
4.3955e-12
6.58395e-08
1.95568e-05
4.30275e-12
6.21419e-08
1.95028e-05
4.37109e-12
5.84206e-08
1.94556e-05
4.11203e-12
5.12398e-08
1.9396e-05
3.77845e-12
6.51773e-08
2.70821e-12
-2.86017e-08
7.70533e-05
-3.84663e-08
8.96518e-05
4.76259e-05
-6.76211e-08
2.9495e-05
3.61273e-05
-8.17629e-08
1.15804e-05
3.15442e-05
-8.58606e-08
4.66896e-06
2.90587e-05
-8.47276e-08
2.57016e-06
2.7439e-05
-8.04675e-08
1.70023e-06
2.62619e-05
-7.4698e-08
1.25181e-06
2.5355e-05
-6.84022e-08
9.75263e-07
2.46303e-05
-6.21537e-08
7.86864e-07
2.40352e-05
-5.62588e-08
6.51361e-07
2.35362e-05
-5.08534e-08
5.49898e-07
2.31106e-05
-4.5975e-08
4.71566e-07
2.27426e-05
-4.16078e-08
4.09598e-07
2.24207e-05
-3.77099e-08
3.59578e-07
2.21364e-05
-3.423e-08
3.18513e-07
2.18832e-05
-3.1116e-08
2.84309e-07
2.16561e-05
-2.83197e-08
2.55466e-07
2.1451e-05
-2.57977e-08
2.30876e-07
2.12648e-05
-2.35137e-08
2.09712e-07
2.10949e-05
-2.14363e-08
1.91339e-07
2.09392e-05
-1.95396e-08
1.75269e-07
2.07959e-05
-1.78021e-08
1.6112e-07
2.06635e-05
-1.62061e-08
1.4858e-07
2.05408e-05
-1.47371e-08
1.37409e-07
2.04268e-05
-1.33831e-08
1.27405e-07
2.03205e-05
-1.21342e-08
1.18404e-07
2.02212e-05
-1.09821e-08
1.10273e-07
2.01283e-05
-9.9202e-09
1.02895e-07
2.0041e-05
-8.94296e-09
9.61802e-08
1.9959e-05
-8.045e-09
9.00458e-08
1.98818e-05
-7.226e-09
8.4419e-08
1.98091e-05
-6.47788e-09
7.9253e-08
1.97404e-05
-5.82015e-09
7.44591e-08
1.96756e-05
-5.22019e-09
7.00731e-08
1.96145e-05
-4.78926e-09
6.58386e-08
1.95568e-05
-4.35128e-09
6.21415e-08
1.95028e-05
-4.42014e-09
5.84217e-08
1.94556e-05
-4.10292e-09
5.12393e-08
1.9396e-05
-5.55696e-09
6.51768e-08
-4.74652e-09
-2.86029e-08
7.70544e-05
-7.79161e-08
8.96517e-05
4.76291e-05
-1.3693e-07
2.94946e-05
3.61318e-05
-1.64867e-07
1.15803e-05
3.15496e-05
-1.72952e-07
4.66932e-06
2.90645e-05
-1.70478e-07
2.57081e-06
2.74448e-05
-1.61877e-07
1.70115e-06
2.62675e-05
-1.50343e-07
1.25298e-06
2.53602e-05
-1.37812e-07
9.76628e-07
2.46351e-05
-1.25401e-07
7.88374e-07
2.40396e-05
-1.13697e-07
6.52966e-07
2.35401e-05
-1.02959e-07
5.51557e-07
2.31142e-05
-9.3255e-08
4.73245e-07
2.27459e-05
-8.45517e-08
4.11267e-07
2.24237e-05
-7.67671e-08
3.61216e-07
2.21392e-05
-6.98014e-08
3.20108e-07
2.18857e-05
-6.35548e-08
2.85851e-07
2.16584e-05
-5.7933e-08
2.56949e-07
2.14532e-05
-5.28538e-08
2.32298e-07
2.12668e-05
-4.82457e-08
2.11073e-07
2.10968e-05
-4.40489e-08
1.92641e-07
2.0941e-05
-4.0213e-08
1.76512e-07
2.07975e-05
-3.66959e-08
1.62308e-07
2.06651e-05
-3.34628e-08
1.49718e-07
2.05423e-05
-3.04856e-08
1.38499e-07
2.04282e-05
-2.77405e-08
1.2845e-07
2.03219e-05
-2.52072e-08
1.19407e-07
2.02226e-05
-2.28701e-08
1.11236e-07
2.01295e-05
-2.07149e-08
1.03823e-07
2.00422e-05
-1.87315e-08
9.70734e-08
1.99602e-05
-1.69081e-08
9.09078e-08
1.9883e-05
-1.52439e-08
8.52505e-08
1.98102e-05
-1.37211e-08
8.00557e-08
1.97415e-05
-1.23791e-08
7.52338e-08
1.96766e-05
-1.11474e-08
7.08227e-08
1.96155e-05
-1.02537e-08
6.65643e-08
1.95576e-05
-9.32044e-09
6.28355e-08
1.95035e-05
-9.42719e-09
5.90988e-08
1.94562e-05
-8.64569e-09
5.18648e-08
1.93963e-05
-1.15546e-08
6.58595e-08
-9.55698e-09
-2.78136e-08
7.70565e-05
-1.18922e-07
8.96512e-05
4.7635e-05
-2.08343e-07
2.94929e-05
3.61408e-05
-2.4902e-07
1.15784e-05
3.15604e-05
-2.59885e-07
4.66733e-06
2.90763e-05
-2.54857e-07
2.56847e-06
2.74569e-05
-2.40971e-07
1.6985e-06
2.62795e-05
-2.22998e-07
1.25007e-06
2.53719e-05
-2.038e-07
9.73538e-07
2.46463e-05
-1.8499e-07
7.85171e-07
2.40503e-05
-1.67388e-07
6.49725e-07
2.35503e-05
-1.51333e-07
5.48336e-07
2.31239e-05
-1.36892e-07
4.70093e-07
2.27551e-05
-1.23987e-07
4.08223e-07
2.24325e-05
-1.12478e-07
3.58305e-07
2.21476e-05
-1.02204e-07
3.1734e-07
2.18938e-05
-9.30062e-08
2.83236e-07
2.16661e-05
-8.47393e-08
2.54486e-07
2.14605e-05
-7.7277e-08
2.29986e-07
2.12739e-05
-7.05105e-08
2.08902e-07
2.11036e-05
-6.43495e-08
1.90607e-07
2.09475e-05
-5.87183e-08
1.74605e-07
2.08038e-05
-5.35547e-08
1.60517e-07
2.06712e-05
-4.88074e-08
1.48035e-07
2.05482e-05
-4.44338e-08
1.36913e-07
2.04339e-05
-4.03995e-08
1.26953e-07
2.03274e-05
-3.66755e-08
1.17993e-07
2.02278e-05
-3.3239e-08
1.09896e-07
2.01346e-05
-3.00693e-08
1.02552e-07
2.00472e-05
-2.71515e-08
9.58638e-08
1.9965e-05
-2.4468e-08
8.9755e-08
1.98876e-05
-2.20182e-08
8.41518e-08
1.98147e-05
-1.97736e-08
7.90039e-08
1.97459e-05
-1.77929e-08
7.42279e-08
1.96808e-05
-1.59603e-08
6.98568e-08
1.96196e-05
-1.46364e-08
6.56419e-08
1.95615e-05
-1.31908e-08
6.19438e-08
1.95072e-05
-1.3392e-08
5.82671e-08
1.94595e-05
-1.20003e-08
5.10363e-08
1.93996e-05
-1.67534e-08
6.51449e-08
-1.30485e-08
-2.81974e-08
7.70605e-05
-1.63594e-07
8.96509e-05
4.76453e-05
-2.84859e-07
2.94917e-05
3.61555e-05
-3.3775e-07
1.15785e-05
3.15776e-05
-3.50611e-07
4.66868e-06
2.90944e-05
-3.4239e-07
2.5707e-06
2.74749e-05
-3.22914e-07
1.7015e-06
2.62966e-05
-2.98448e-07
1.25368e-06
2.53879e-05
-2.72676e-07
9.77572e-07
2.46611e-05
-2.47616e-07
7.89472e-07
2.40638e-05
-2.24259e-07
6.54152e-07
2.35627e-05
-2.0299e-07
5.52775e-07
2.31352e-05
-1.8386e-07
4.7446e-07
2.27655e-05
-1.66751e-07
4.12456e-07
2.24421e-05
-1.5147e-07
3.62364e-07
2.21565e-05
-1.37804e-07
3.21203e-07
2.19022e-05
-1.25546e-07
2.86891e-07
2.1674e-05
-1.14509e-07
2.57932e-07
2.1468e-05
-1.04529e-07
2.33226e-07
2.1281e-05
-9.54673e-08
2.11949e-07
2.11104e-05
-8.72061e-08
1.93469e-07
2.09541e-05
-7.9648e-08
1.77298e-07
2.08102e-05
-7.27121e-08
1.63052e-07
2.06773e-05
-6.63315e-08
1.50426e-07
2.05541e-05
-6.04511e-08
1.39171e-07
2.04397e-05
-5.50252e-08
1.29093e-07
2.0333e-05
-5.00163e-08
1.20023e-07
2.02333e-05
-4.5393e-08
1.11827e-07
2.014e-05
-4.11279e-08
1.04392e-07
2.00524e-05
-3.72011e-08
9.76218e-08
1.99701e-05
-3.35881e-08
9.14362e-08
1.98926e-05
-3.02868e-08
8.57614e-08
1.98195e-05
-2.72531e-08
8.05482e-08
1.97506e-05
-2.45679e-08
7.57097e-08
1.96854e-05
-2.20526e-08
7.12766e-08
1.9624e-05
-2.02194e-08
6.7012e-08
1.95656e-05
-1.81029e-08
6.32423e-08
1.9511e-05
-1.83252e-08
5.95384e-08
1.94627e-05
-1.5872e-08
5.21714e-08
1.94022e-05
-2.25872e-08
6.64043e-08
-1.58391e-08
-2.6548e-08
7.70659e-05
-2.11936e-07
8.96492e-05
4.76591e-05
-3.65207e-07
2.94871e-05
3.61757e-05
-4.27615e-07
1.15733e-05
3.16013e-05
-4.39349e-07
4.66307e-06
2.91199e-05
-4.25255e-07
2.56427e-06
2.75008e-05
-3.98263e-07
1.69442e-06
2.63223e-05
-3.66073e-07
1.2462e-06
2.54128e-05
-3.33062e-07
9.69888e-07
2.46849e-05
-3.01508e-07
7.8177e-07
2.40865e-05
-2.72444e-07
6.4658e-07
2.35843e-05
-2.46202e-07
5.45444e-07
2.31557e-05
-2.22743e-07
4.67443e-07
2.2785e-05
-2.01852e-07
4.05797e-07
2.24607e-05
-1.8325e-07
3.56082e-07
2.21743e-05
-1.66645e-07
3.15301e-07
2.19191e-05
-1.51767e-07
2.81362e-07
2.16902e-05
-1.38377e-07
2.52759e-07
2.14836e-05
-1.2627e-07
2.28386e-07
2.1296e-05
-1.15272e-07
2.07416e-07
2.11248e-05
-1.0524e-07
1.8922e-07
2.09679e-05
-9.60547e-08
1.73308e-07
2.08235e-05
-8.7619e-08
1.59297e-07
2.06901e-05
-7.98524e-08
1.46884e-07
2.05665e-05
-7.26886e-08
1.35824e-07
2.04517e-05
-6.60738e-08
1.2592e-07
2.03446e-05
-5.99634e-08
1.17009e-07
2.02446e-05
-5.43205e-08
1.08958e-07
2.01509e-05
-4.91133e-08
1.01654e-07
2.0063e-05
-4.43178e-08
9.50054e-08
1.99804e-05
-3.99034e-08
8.89312e-08
1.99026e-05
-3.58676e-08
8.33597e-08
1.98293e-05
-3.21494e-08
7.82427e-08
1.97601e-05
-2.88523e-08
7.34971e-08
1.96946e-05
-2.57206e-08
6.91452e-08
1.96328e-05
-2.3447e-08
6.49705e-08
1.95741e-05
-2.06273e-08
6.12622e-08
1.95191e-05
-2.10029e-08
5.76892e-08
1.947e-05
-1.71181e-08
5.03293e-08
1.94094e-05
-2.67391e-08
6.48066e-08
-1.53279e-08
-2.7393e-08
7.7075e-05
-2.69007e-07
8.96488e-05
4.76803e-05
-4.56066e-07
2.94855e-05
3.62044e-05
-5.26899e-07
1.15751e-05
3.16333e-05
-5.36106e-07
4.66786e-06
2.91524e-05
-5.15226e-07
2.57086e-06
2.75322e-05
-4.80367e-07
1.70232e-06
2.63516e-05
-4.40407e-07
1.25491e-06
2.54398e-05
-4.00232e-07
9.79004e-07
2.47096e-05
-3.62255e-07
7.90961e-07
2.4109e-05
-3.2749e-07
6.55608e-07
2.36049e-05
-2.96198e-07
5.54154e-07
2.31746e-05
-2.68253e-07
4.75738e-07
2.28025e-05
-2.43364e-07
4.13628e-07
2.2477e-05
-2.21178e-07
3.63433e-07
2.21895e-05
-2.01347e-07
3.22179e-07
2.19335e-05
-1.83551e-07
2.87784e-07
2.17039e-05
-1.67511e-07
2.58753e-07