/*--------------------------------*- C++ -*----------------------------------*\
| =========                 |                                                 |
| \\      /  F ield         | OpenFOAM: The Open Source CFD Toolbox           |
|  \\    /   O peration     | Version:  5.0                                   |
|   \\  /    A nd           | Web:      www.OpenFOAM.org                      |
|    \\/     M anipulation  |                                                 |
\*---------------------------------------------------------------------------*/
FoamFile
{
    version     2.0;
    format      ascii;
    class       volScalarField;
    location    "300/porous";
    object      T;
}
// * * * * * * * * * * * * * * * * * * * * * * * * * * * * * * * * * * * * * //

dimensions      [0 0 0 1 0 0 0];

internalField   nonuniform List<scalar> 
36000
(
400
400
400
400
399.999
399.572
399.19
398.839
398.506
398.186
397.874
397.569
397.268
396.972
396.678
396.386
396.096
395.809
395.524
395.242
394.963
394.686
394.409
394.132
393.856
393.581
393.308
393.037
392.767
392.498
392.231
391.965
391.703
391.443
391.192
391.728
392.089
392.362
392.584
392.773
400
400
400
400
399.999
399.622
399.286
398.979
398.691
398.416
398.152
397.895
397.644
397.398
397.156
396.916
396.679
396.445
396.214
395.986
395.762
395.54
395.318
395.097
394.878
394.66
394.444
394.229
394.016
393.804
393.593
393.384
393.177
392.973
392.774
393.126
393.372
393.561
393.711
393.845
400
400
400
400
399.999
399.629
399.3
399.002
398.726
398.464
398.213
397.971
397.736
397.508
397.284
397.063
396.846
396.632
396.422
396.217
396.016
395.817
395.62
395.423
395.229
395.037
394.847
394.659
394.472
394.288
394.104
393.923
393.744
393.568
393.396
393.721
393.952
394.13
394.272
394.395
400
400
400
400
399.999
399.627
399.299
399.002
398.727
398.467
398.219
397.98
397.749
397.525
397.305
397.089
396.877
396.668
396.465
396.265
396.07
395.878
395.688
395.5
395.313
395.129
394.948
394.769
394.592
394.417
394.243
394.072
393.903
393.736
393.575
393.894
394.123
394.3
394.443
394.564
400
400
400
400
399.999
399.627
399.298
399.001
398.726
398.467
398.22
397.982
397.752
397.528
397.308
397.093
396.881
396.674
396.471
396.273
396.079
395.888
395.7
395.514
395.329
395.147
394.969
394.793
394.619
394.447
394.276
394.108
393.943
393.78
393.622
393.939
394.168
394.345
394.489
394.61
400
400
400
400
399.999
399.625
399.296
398.998
398.723
398.464
398.217
397.979
397.748
397.524
397.304
397.088
396.876
396.668
396.465
396.266
396.071
395.88
395.692
395.505
395.321
395.139
394.961
394.787
394.614
394.443
394.273
394.106
393.942
393.781
393.624
393.941
394.17
394.347
394.491
394.613
400
400
400
400
399.999
399.625
399.295
398.997
398.723
398.464
398.217
397.979
397.749
397.524
397.303
397.086
396.874
396.665
396.461
396.262
396.066
395.874
395.684
395.498
395.313
395.132
394.954
394.779
394.607
394.436
394.268
394.101
393.937
393.777
393.62
393.937
394.167
394.344
394.488
394.609
400
400
400
400
399.999
399.624
399.294
398.996
398.722
398.463
398.217
397.979
397.748
397.522
397.301
397.083
396.87
396.661
396.456
396.255
396.058
395.865
395.675
395.487
395.303
395.121
394.943
394.768
394.596
394.426
394.257
394.091
393.928
393.767
393.611
393.929
394.158
394.335
394.479
394.601
400
400
400
400
399.999
399.624
399.293
398.996
398.722
398.465
398.219
397.981
397.75
397.524
397.302
397.084
396.87
396.66
396.454
396.252
396.054
395.86
395.669
395.481
395.297
395.115
394.936
394.762
394.59
394.42
394.251
394.085
393.923
393.762
393.605
393.923
394.152
394.33
394.474
394.596
400
400
400
400
399.999
399.624
399.293
398.997
398.723
398.466
398.22
397.983
397.751
397.525
397.303
397.084
396.869
396.658
396.451
396.248
396.049
395.854
395.662
395.474
395.289
395.108
394.929
394.754
394.582
394.412
394.244
394.078
393.916
393.756
393.599
393.917
394.146
394.323
394.467
394.589
400
400
400
400
399.999
399.624
399.294
398.997
398.725
398.468
398.222
397.985
397.753
397.527
397.305
397.086
396.87
396.658
396.45
396.246
396.047
395.85
395.658
395.47
395.285
395.104
394.925
394.75
394.578
394.408
394.24
394.075
393.913
393.753
393.595
393.913
394.142
394.319
394.464
394.586
400
400
400
400
399.999
399.624
399.294
398.998
398.726
398.469
398.223
397.985
397.754
397.527
397.305
397.085
396.869
396.656
396.447
396.244
396.045
395.847
395.654
395.466
395.281
395.1
394.922
394.747
394.575
394.405
394.237
394.072
393.911
393.75
393.592
393.91
394.139
394.316
394.46
394.582
400
400
400
400
399.999
399.624
399.295
399
398.727
398.47
398.223
397.985
397.753
397.527
397.304
397.084
396.868
396.655
396.447
396.244
396.044
395.848
395.654
395.465
395.281
395.099
394.921
394.747
394.575
394.405
394.238
394.073
393.912
393.751
393.592
393.91
394.139
394.316
394.46
394.582
400
400
400
400
399.999
399.625
399.296
399.001
398.728
398.47
398.222
397.984
397.751
397.524
397.301
397.081
396.865
396.653
396.445
396.242
396.043
395.847
395.654
395.465
395.28
395.099
394.921
394.747
394.575
394.406
394.239
394.075
393.914
393.753
393.592
393.91
394.14
394.317
394.461
394.583
400
400
400
400
399.999
399.625
399.297
399.002
398.729
398.47
398.221
397.982
397.749
397.521
397.298
397.078
396.862
396.65
396.443
396.241
396.042
395.846
395.653
395.464
395.279
395.099
394.922
394.748
394.577
394.408
394.242
394.078
393.917
393.755
393.594
393.912
394.141
394.318
394.462
394.584
400
400
400
400
399.999
399.627
399.299
399.004
398.73
398.469
398.22
397.979
397.746
397.518
397.294
397.075
396.859
396.647
396.44
396.238
396.039
395.844
395.651
395.462
395.278
395.098
394.922
394.749
394.578
394.41
394.245
394.082
393.921
393.757
393.595
393.913
394.142
394.32
394.464
394.585
400
400
400
400
399.999
399.627
399.3
399.004
398.729
398.468
398.218
397.977
397.743
397.515
397.291
397.072
396.857
396.645
396.438
396.236
396.037
395.841
395.648
395.46
395.276
395.097
394.921
394.749
394.58
394.412
394.247
394.085
393.922
393.758
393.595
393.914
394.143
394.32
394.464
394.586
400
400
400
400
399.999
399.627
399.301
399.005
398.729
398.468
398.218
397.976
397.742
397.514
397.29
397.071
396.856
396.644
396.437
396.234
396.035
395.839
395.646
395.458
395.275
395.096
394.922
394.751
394.582
394.415
394.25
394.088
393.924
393.759
393.596
393.914
394.144
394.321
394.465
394.587
400
400
400
400
399.999
399.628
399.302
399.005
398.729
398.467
398.217
397.976
397.741
397.513
397.289
397.07
396.856
396.644
396.436
396.234
396.035
395.838
395.646
395.458
395.276
395.097
394.923
394.752
394.583
394.417
394.252
394.089
393.925
393.759
393.595
393.914
394.144
394.321
394.465
394.587
400
400
400
400
399.999
399.629
399.302
399.005
398.729
398.467
398.217
397.976
397.742
397.514
397.29
397.072
396.858
396.647
396.44
396.237
396.038
395.842
395.65
395.463
395.28
395.102
394.927
394.756
394.588
394.421
394.256
394.092
393.927
393.761
393.597
393.916
394.146
394.323
394.468
394.59
400
400
400
400
399.999
399.63
399.303
399.006
398.729
398.467
398.218
397.977
397.743
397.515
397.292
397.073
396.86
396.65
396.444
396.241
396.043
395.848
395.656
395.469
395.286
395.107
394.932
394.76
394.591
394.424
394.259
394.094
393.928
393.762
393.597
393.917
394.147
394.325
394.469
394.591
400
400
400
400
399.999
399.63
399.303
399.006
398.73
398.468
398.219
397.979
397.746
397.518
397.295
397.077
396.864
396.655
396.45
396.249
396.051
395.856
395.665
395.478
395.294
395.115
394.939
394.767
394.597
394.429
394.263
394.098
393.932
393.765
393.601
393.921
394.151
394.329
394.474
394.596
400
400
400
400
399.999
399.631
399.304
399.007
398.73
398.469
398.22
397.98
397.747
397.52
397.298
397.08
396.868
396.66
396.456
396.255
396.057
395.863
395.672
395.485
395.301
395.121
394.945
394.772
394.602
394.433
394.266
394.1
393.934
393.767
393.604
393.924
394.154
394.332
394.477
394.599
400
400
400
400
399.999
399.631
399.305
399.008
398.731
398.471
398.222
397.983
397.751
397.524
397.303
397.086
396.875
396.668
396.465
396.265
396.068
395.874
395.683
395.496
395.312
395.131
394.955
394.782
394.61
394.441
394.273
394.107
393.94
393.774
393.611
393.931
394.161
394.34
394.484
394.607
400
400
400
400
399.999
399.632
399.305
399.008
398.732
398.472
398.223
397.984
397.753
397.527
397.306
397.09
396.88
396.674
396.471
396.272
396.076
395.882
395.691
395.503
395.319
395.138
394.962
394.788
394.615
394.445
394.276
394.109
393.943
393.777
393.613
393.933
394.164
394.342
394.487
394.61
400
400
400
400
399.999
399.632
399.307
399.01
398.735
398.474
398.226
397.988
397.757
397.532
397.312
397.097
396.887
396.681
396.48
396.282
396.085
395.891
395.7
395.512
395.327
395.146
394.968
394.793
394.619
394.448
394.278
394.11
393.943
393.776
393.612
393.932
394.163
394.341
394.485
394.607
400
400
400
400
399.999
399.633
399.307
399.01
398.734
398.474
398.225
397.986
397.754
397.529
397.309
397.093
396.883
396.677
396.475
396.275
396.077
395.881
395.688
395.498
395.311
395.128
394.947
394.769
394.592
394.417
394.244
394.073
393.903
393.733
393.566
393.887
394.118
394.296
394.44
394.562
400
400
400
400
399.999
399.633
399.308
399.01
398.732
398.47
398.218
397.976
397.741
397.511
397.287
397.067
396.852
396.64
396.433
396.227
396.023
395.82
395.62
395.422
395.227
395.036
394.847
394.659
394.473
394.288
394.106
393.925
393.745
393.565
393.389
393.715
393.948
394.126
394.269
394.392
400
400
400
400
399.999
399.627
399.293
398.985
398.697
398.421
398.156
397.899
397.647
397.401
397.158
396.92
396.684
396.453
396.224
395.997
395.77
395.543
395.319
395.097
394.877
394.66
394.444
394.23
394.017
393.805
393.595
393.387
393.18
392.973
392.769
393.122
393.369
393.559
393.71
393.843
400
400
400
400
399.999
399.577
399.197
398.845
398.511
398.19
397.878
397.572
397.271
396.974
396.68
396.39
396.102
395.817
395.535
395.253
394.971
394.69
394.409
394.131
393.855
393.582
393.309
393.039
392.769
392.501
392.235
391.97
391.706
391.444
391.187
391.725
392.086
392.36
392.583
392.771
400
400
400
400
399.999
399.773
399.518
399.248
398.969
398.686
398.401
398.116
397.831
397.547
397.264
396.981
396.699
396.417
396.137
395.858
395.582
395.307
395.032
394.758
394.484
394.211
393.939
393.668
393.398
393.13
392.863
392.597
392.333
392.072
391.816
392.065
392.303
392.516
392.704
392.869
400
400
400
400
400
399.805
399.589
399.363
399.13
398.895
398.66
398.426
398.193
397.962
397.733
397.504
397.277
397.052
396.828
396.606
396.387
396.169
395.953
395.737
395.522
395.308
395.095
394.884
394.673
394.464
394.256
394.05
393.845
393.642
393.442
393.555
393.676
393.794
393.902
394.004
400
400
400
400
400
399.809
399.6
399.382
399.159
398.937
398.715
398.495
398.278
398.064
397.853
397.643
397.436
397.231
397.028
396.829
396.632
396.438
396.245
396.053
395.863
395.675
395.488
395.303
395.12
394.938
394.757
394.578
394.401
394.226
394.054
394.155
394.264
394.37
394.469
394.561
400
400
400
400
400
399.808
399.599
399.381
399.16
398.939
398.72
398.503
398.29
398.08
397.872
397.667
397.465
397.265
397.068
396.875
396.684
396.497
396.311
396.127
395.945
395.764
395.586
395.41
395.236
395.063
394.892
394.722
394.555
394.39
394.227
394.327
394.435
394.54
394.639
394.73
400
400
400
400
400
399.808
399.598
399.38
399.16
398.939
398.72
398.504
398.292
398.082
397.876
397.671
397.47
397.271
397.075
396.883
396.694
396.508
396.324
396.141
395.961
395.783
395.607
395.434
395.262
395.092
394.924
394.758
394.594
394.432
394.273
394.373
394.481
394.586
394.685
394.776
400
400
400
400
400
399.807
399.596
399.378
399.157
398.936
398.717
398.501
398.288
398.078
397.871
397.666
397.464
397.265
397.069
396.876
396.687
396.5
396.316
396.134
395.953
395.775
395.6
395.427
395.257
395.088
394.921
394.755
394.592
394.432
394.274
394.374
394.482
394.588
394.687
394.779
400
400
400
400
400
399.807
399.596
399.377
399.156
398.935
398.717
398.501
398.288
398.078
397.87
397.665
397.462
397.263
397.066
396.873
396.683
396.495
396.31
396.128
395.947
395.769
395.593
395.421
395.25
395.082
394.915
394.75
394.588
394.427
394.27
394.371
394.479
394.584
394.684
394.775
400
400
400
400
400
399.806
399.595
399.376
399.155
398.934
398.715
398.499
398.286
398.076
397.867
397.662
397.459
397.259
397.061
396.867
396.676
396.487
396.301
396.118
395.937
395.759
395.583
395.41
395.24
395.071
394.905
394.74
394.578
394.418
394.261
394.361
394.47
394.575
394.675
394.767
400
400
400
400
400
399.806
399.595
399.376
399.155
398.935
398.716
398.501
398.287
398.077
397.868
397.662
397.459
397.258
397.06
396.865
396.673
396.484
396.297
396.113
395.932
395.754
395.578
395.404
395.234
395.066
394.899
394.734
394.572
394.413
394.255
394.356
394.464
394.57
394.67
394.762
400
400
400
400
400
399.806
399.595
399.376
399.155
398.935
398.717
398.501
398.288
398.077
397.868
397.662
397.458
397.256
397.058
396.862
396.669
396.479
396.291
396.107
395.926
395.747
395.571
395.397
395.227
395.058
394.892
394.727
394.565
394.406
394.248
394.349
394.458
394.564
394.663
394.755
400
400
400
400
400
399.806
399.595
399.376
399.156
398.936
398.718
398.503
398.289
398.079
397.87
397.663
397.459
397.257
397.057
396.861
396.667
396.476
396.288
396.104
395.922
395.743
395.567
395.394
395.223
395.055
394.888
394.724
394.562
394.403
394.245
394.346
394.454
394.56
394.659
394.752
400
400
400
400
400
399.806
399.595
399.377
399.156
398.937
398.718
398.503
398.289
398.079
397.87
397.663
397.458
397.255
397.055
396.859
396.665
396.474
396.285
396.1
395.919
395.74
395.563
395.39
395.219
395.051
394.884
394.721
394.559
394.4
394.241
394.342
394.451
394.557
394.656
394.748
400
400
400
400
400
399.806
399.596
399.378
399.157
398.937
398.719
398.503
398.289
398.078
397.869
397.662
397.457
397.254
397.054
396.858
396.665
396.473
396.285
396.1
395.918
395.739
395.563
395.39
395.219
395.051
394.885
394.721
394.56
394.4
394.242
394.343
394.451
394.557
394.656
394.748
400
400
400
400
400
399.807
399.596
399.378
399.158
398.938
398.719
398.502
398.288
398.076
397.867
397.66
397.455
397.252
397.053
396.856
396.663
396.472
396.284
396.099
395.917
395.738
395.562
395.389
395.219
395.051
394.885
394.722
394.561
394.401
394.242
394.343
394.451
394.557
394.656
394.748
400
400
400
400
400
399.807
399.597
399.379
399.159
398.938
398.718
398.501
398.286
398.074
397.865
397.657
397.452
397.25
397.051
396.855
396.662
396.471
396.283
396.098
395.916
395.738
395.562
395.39
395.22
395.052
394.887
394.724
394.563
394.403
394.244
394.345
394.453
394.559
394.658
394.75
400
400
400
400
400
399.808
399.598
399.38
399.159
398.938
398.718
398.5
398.285
398.072
397.862
397.655
397.45
397.247
397.048
396.852
396.659
396.469
396.281
396.096
395.914
395.736
395.562
395.39
395.221
395.054
394.889
394.727
394.566
394.405
394.245
394.346
394.454
394.56
394.659
394.751
400
400
400
400
400
399.808
399.598
399.381
399.159
398.937
398.717
398.499
398.283
398.07
397.86
397.653
397.448
397.245
397.046
396.85
396.657
396.467
396.278
396.094
395.913
395.735
395.561
395.389
395.221
395.055
394.89
394.728
394.568
394.406
394.246
394.346
394.455
394.561
394.66
394.752
400
400
400
400
400
399.808
399.599
399.381
399.159
398.937
398.716
398.498
398.282
398.069
397.859
397.652
397.447
397.244
397.045
396.849
396.656
396.465
396.277
396.093
395.912
395.735
395.561
395.39
395.222
395.056
394.893
394.731
394.57
394.408
394.247
394.347
394.456
394.562
394.661
394.753
400
400
400
400
400
399.808
399.599
399.381
399.159
398.937
398.716
398.498
398.282
398.069
397.859
397.651
397.447
397.244
397.045
396.849
396.656
396.465
396.277
396.093
395.912
395.735
395.562
395.391
395.223
395.058
394.894
394.732
394.57
394.408
394.247
394.347
394.456
394.562
394.661
394.753
400
400
400
400
400
399.809
399.6
399.382
399.16
398.937
398.717
398.498
398.283
398.07
397.86
397.653
397.449
397.247
397.048
396.852
396.659
396.468
396.281
396.097
395.917
395.74
395.566
395.396
395.228
395.062
394.898
394.736
394.574
394.411
394.249
394.35
394.458
394.564
394.664
394.756
400
400
400
400
400
399.809
399.6
399.382
399.16
398.938
398.717
398.499
398.284
398.071
397.861
397.654
397.45
397.249
397.051
396.855
396.663
396.473
396.286
396.102
395.922
395.744
395.571
395.4
395.232
395.065
394.901
394.738
394.575
394.412
394.251
394.351
394.46
394.566
394.665
394.757
400
400
400
400
400
399.809
399.601
399.383
399.161
398.939
398.718
398.501
398.286
398.073
397.864
397.658
397.454
397.254
397.056
396.862
396.67
396.48
396.294
396.11
395.93
395.752
395.578
395.407
395.238
395.072
394.907
394.743
394.58
394.417
394.255
394.356
394.464
394.57
394.67
394.762
400
400
400
400
400
399.81
399.601
399.383
399.161
398.939
398.719
398.502
398.287
398.075
397.866
397.66
397.457
397.258
397.061
396.867
396.675
396.486
396.3
396.116
395.936
395.758
395.584
395.412
395.243
395.076
394.911
394.746
394.583
394.42
394.258
394.359
394.467
394.574
394.673
394.766
400
400
400
400
400
399.81
399.602
399.384
399.163
398.941
398.722
398.505
398.291
398.08
397.871
397.666
397.464
397.265
397.069
396.876
396.685
396.496
396.31
396.127
395.946
395.769
395.594
395.422
395.253
395.085
394.919
394.754
394.591
394.427
394.266
394.367
394.475
394.581
394.681
394.773
400
400
400
400
400
399.81
399.602
399.385
399.163
398.942
398.723
398.506
398.292
398.082
397.874
397.669
397.467
397.269
397.074
396.881
396.691
396.503
396.317
396.133
395.953
395.775
395.6
395.428
395.258
395.089
394.923
394.758
394.594
394.43
394.269
394.369
394.478
394.584
394.684
394.776
400
400
400
400
400
399.811
399.603
399.387
399.166
398.945
398.726
398.51
398.297
398.086
397.879
397.675
397.474
397.276
397.082
396.89
396.699
396.511
396.325
396.141
395.96
395.782
395.607
395.434
395.262
395.093
394.925
394.759
394.594
394.43
394.268
394.368
394.477
394.582
394.682
394.774
400
400
400
400
400
399.811
399.604
399.387
399.166
398.945
398.725
398.508
398.294
398.084
397.876
397.671
397.469
397.271
397.076
396.882
396.691
396.501
396.313
396.127
395.944
395.764
395.586
395.41
395.236
395.063
394.892
394.723
394.555
394.388
394.222
394.323
394.431
394.537
394.636
394.728
400
400
400
400
400
399.811
399.604
399.386
399.164
398.941
398.719
398.5
398.282
398.068
397.856
397.647
397.44
397.237
397.036
396.837
396.639
396.442
396.247
396.054
395.863
395.675
395.489
395.304
395.121
394.939
394.758
394.58
394.402
394.225
394.05
394.152
394.261
394.368
394.466
394.559
400
400
400
400
400
399.807
399.593
399.367
399.135
398.9
398.664
398.43
398.197
397.965
397.735
397.507
397.281
397.057
396.835
396.614
396.394
396.174
395.955
395.738
395.522
395.308
395.096
394.885
394.675
394.466
394.258
394.052
393.847
393.642
393.439
393.553
393.675
393.793
393.9
394.003
400
400
400
400
399.999
399.775
399.522
399.252
398.973
398.69
398.405
398.119
397.834
397.55
397.266
396.984
396.703
396.423
396.145
395.868
395.59
395.312
395.035
394.759
394.485
394.212
393.94
393.67
393.401
393.132
392.866
392.6
392.336
392.073
391.814
392.063
392.301
392.515
392.703
392.867
400
400
400
400
400
399.858
399.696
399.515
399.32
399.111
398.891
398.662
398.427
398.186
397.94
397.69
397.437
397.182
396.925
396.667
396.408
396.149
395.888
395.627
395.365
395.103
394.841
394.579
394.317
394.056
393.795
393.535
393.276
393.018
392.764
392.836
392.929
393.032
393.138
393.236
400
400
400
400
400
399.878
399.741
399.593
399.434
399.267
399.092
398.912
398.727
398.538
398.347
398.153
397.957
397.76
397.562
397.364
397.165
396.967
396.768
396.569
396.37
396.17
395.971
395.773
395.575
395.377
395.18
394.983
394.787
394.593
394.4
394.398
394.411
394.435
394.466
394.5
400
400
400
400
400
399.88
399.748
399.606
399.455
399.297
399.133
398.966
398.795
398.622
398.448
398.272
398.095
397.917
397.74
397.563
397.387
397.211
397.036
396.861
396.686
396.512
396.339
396.167
395.995
395.825
395.655
395.485
395.318
395.151
394.986
394.986
394.997
395.018
395.043
395.074
400
400
400
400
400
399.88
399.747
399.605
399.455
399.299
399.137
398.972
398.805
398.635
398.464
398.293
398.12
397.948
397.776
397.605
397.435
397.266
397.097
396.929
396.762
396.596
396.431
396.267
396.104
395.942
395.781
395.622
395.463
395.306
395.151
395.154
395.167
395.188
395.215
395.247
400
400
400
400
400
399.879
399.747
399.605
399.455
399.299
399.138
398.973
398.806
398.638
398.468
398.297
398.125
397.954
397.783
397.613
397.445
397.277
397.11
396.944
396.779
396.615
396.452
396.291
396.131
395.972
395.814
395.657
395.502
395.348
395.196
395.2
395.214
395.236
395.264
395.296
400
400
400
400
400
399.879
399.746
399.604
399.453
399.297
399.135
398.97
398.803
398.634
398.463
398.292
398.12
397.949
397.778
397.608
397.439
397.271
397.104
396.938
396.773
396.609
396.446
396.286
396.126
395.968
395.81
395.654
395.5
395.347
395.196
395.201
395.215
395.238
395.266
395.298
400
400
400
400
400
399.879
399.746
399.603
399.453
399.296
399.135
398.97
398.803
398.633
398.463
398.291
398.119
397.947
397.776
397.605
397.435
397.267
397.1
396.933
396.768
396.604
396.441
396.28
396.121
395.963
395.806
395.65
395.496
395.343
395.193
395.197
395.212
395.235
395.263
395.296
400
400
400
400
400
399.879
399.745
399.602
399.452
399.295
399.134
398.969
398.801
398.631
398.46
398.288
398.115
397.943
397.771
397.6
397.429
397.26
397.092
396.925
396.759
396.595
396.432
396.271
396.111
395.953
395.796
395.64
395.486
395.334
395.183
395.188
395.203
395.226
395.254
395.287
400
400
400
400
400
399.879
399.745
399.602
399.452
399.296
399.134
398.969
398.802
398.632
398.461
398.288
398.116
397.943
397.77
397.598
397.427
397.257
397.089
396.921
396.755
396.591
396.427
396.266
396.106
395.948
395.791
395.635
395.481
395.329
395.178
395.183
395.198
395.221
395.249
395.282
400
400
400
400
400
399.878
399.745
399.602
399.452
399.296
399.134
398.969
398.802
398.632
398.46
398.288
398.114
397.941
397.768
397.595
397.424
397.253
397.084
396.916
396.75
396.585
396.421
396.26
396.1
395.941
395.784
395.628
395.474
395.322
395.171
395.176
395.191
395.214
395.242
395.275
400
400
400
400
400
399.879
399.745
399.603
399.452
399.296
399.135
398.97
398.803
398.633
398.461
398.289
398.115
397.941
397.768
397.595
397.423
397.252
397.082
396.914
396.747
396.582
396.419
396.257
396.097
395.938
395.781
395.625
395.471
395.319
395.168
395.173
395.188
395.211
395.239
395.272
400
400
400
400
400
399.879
399.745
399.603
399.453
399.296
399.135
398.97
398.803
398.633
398.461
398.288
398.114
397.94
397.766
397.593
397.421
397.25
397.079
396.911
396.744
396.579
396.415
396.253
396.093
395.935
395.777
395.622
395.468
395.316
395.165
395.169
395.184
395.207
395.236
395.269
400
400
400
400
400
399.879
399.746
399.603
399.453
399.297
399.136
398.971
398.803
398.633
398.461
398.288
398.114
397.939
397.766
397.593
397.421
397.249
397.079
396.911
396.744
396.578
396.415
396.253
396.093
395.934
395.777
395.622
395.469
395.316
395.165
395.169
395.184
395.207
395.236
395.269
400
400
400
400
400
399.879
399.746
399.604
399.454
399.297
399.136
398.97
398.802
398.631
398.459
398.286
398.112
397.938
397.764
397.591
397.419
397.248
397.078
396.909
396.742
396.577
396.414
396.252
396.092
395.934
395.777
395.622
395.469
395.316
395.165
395.169
395.184
395.207
395.235
395.269
400
400
400
400
400
399.879
399.746
399.604
399.454
399.297
399.135
398.969
398.801
398.63
398.458
398.284
398.11
397.936
397.762
397.59
397.418
397.247
397.077
396.908
396.742
396.577
396.413
396.252
396.093
395.935
395.778
395.623
395.47
395.318
395.166
395.171
395.186
395.209
395.237
395.27
400
400
400
400
400
399.879
399.747
399.605
399.455
399.298
399.135
398.969
398.8
398.629
398.456
398.283
398.108
397.934
397.761
397.588
397.416
397.245
397.075
396.907
396.74
396.575
396.413
396.252
396.093
395.935
395.779
395.625
395.472
395.319
395.167
395.172
395.187
395.21
395.238
395.271
400
400
400
400
400
399.879
399.747
399.605
399.455
399.297
399.135
398.968
398.799
398.627
398.455
398.281
398.107
397.933
397.759
397.586
397.414
397.243
397.073
396.905
396.738
396.574
396.411
396.251
396.092
395.935
395.78
395.626
395.473
395.32
395.167
395.172
395.187
395.21
395.238
395.271
400
400
400
400
400
399.88
399.748
399.606
399.455
399.297
399.134
398.968
398.798
398.627
398.454
398.281
398.107
397.932
397.758
397.586
397.414
397.243
397.072
396.904
396.738
396.574
396.412
396.252
396.093
395.936
395.781
395.627
395.474
395.321
395.168
395.173
395.188
395.211
395.239
395.273
400
400
400
400
400
399.88
399.748
399.606
399.455
399.297
399.134
398.968
398.798
398.627
398.454
398.28
398.106
397.932
397.758
397.585
397.413
397.242
397.072
396.904
396.738
396.574
396.412
396.252
396.094
395.938
395.782
395.629
395.475
395.322
395.169
395.174
395.189
395.211
395.24
395.273
400
400
400
400
400
399.88
399.748
399.606
399.455
399.297
399.135
398.968
398.799
398.628
398.455
398.282
398.108
397.934
397.761
397.588
397.416
397.245
397.076
396.908
396.742
396.578
396.416
396.256
396.098
395.942
395.786
395.632
395.479
395.325
395.172
395.177
395.192
395.215
395.243
395.276
400
400
400
400
400
399.88
399.749
399.606
399.455
399.298
399.135
398.969
398.8
398.628
398.456
398.283
398.109
397.936
397.763
397.59
397.419
397.248
397.079
396.912
396.746
396.582
396.42
396.26
396.102
395.945
395.789
395.635
395.481
395.327
395.174
395.179
395.194
395.216
395.245
395.278
400
400
400
400
400
399.881
399.749
399.607
399.456
399.299
399.136
398.97
398.802
398.631
398.459
398.286
398.113
397.94
397.768
397.596
397.425
397.255
397.086
396.919
396.753
396.589
396.427
396.267
396.108
395.951
395.796
395.641
395.487
395.332
395.179
395.184
395.199
395.222
395.25
395.283
400
400
400
400
400
399.881
399.749
399.607
399.456
399.299
399.137
398.971
398.803
398.632
398.46
398.288
398.115
397.943
397.771
397.599
397.429
397.259
397.091
396.924
396.758
396.594
396.432
396.272
396.113
395.956
395.8
395.644
395.49
395.336
395.182
395.187
395.202
395.225
395.253
395.287
400
400
400
400
400
399.881
399.75
399.608
399.457
399.3
399.139
398.974
398.806
398.636
398.464
398.292
398.12
397.949
397.778
397.607
397.437
397.268
397.1
396.933
396.768
396.604
396.442
396.281
396.122
395.965
395.808
395.653
395.498
395.344
395.191
395.195
395.21
395.233
395.261
395.294
400
400
400
400
400
399.881
399.75
399.608
399.458
399.301
399.139
398.974
398.807
398.637
398.466
398.295
398.123
397.952
397.781
397.611
397.442
397.273
397.105
396.938
396.773
396.609
396.447
396.286
396.127
395.969
395.812
395.656
395.501
395.347
395.193
395.198
395.213
395.235
395.264
395.297
400
400
400
400
400
399.881
399.75
399.609
399.46
399.303
399.142
398.978
398.81
398.641
398.471
398.3
398.129
397.958
397.788
397.618
397.449
397.28
397.112
396.945
396.78
396.615
396.453
396.291
396.131
395.972
395.815
395.658
395.502
395.347
395.193
395.197
395.211
395.234
395.261
395.294
400
400
400
400
400
399.881
399.75
399.609
399.459
399.303
399.141
398.976
398.808
398.638
398.467
398.296
398.124
397.952
397.781
397.61
397.44
397.269
397.1
396.931
396.763
396.597
396.432
396.268
396.105
395.943
395.782
395.622
395.464
395.305
395.148
395.151
395.165
395.186
395.213
395.245
400
400
400
400
400
399.882
399.751
399.609
399.458
399.3
399.137
398.969
398.798
398.625
398.45
398.275
398.098
397.922
397.745
397.569
397.392
397.215
397.039
396.863
396.687
396.513
396.34
396.168
395.996
395.825
395.656
395.487
395.319
395.151
394.984
394.984
394.996
395.016
395.042
395.073
400
400
400
400
400
399.879
399.744
399.596
399.437
399.27
399.095
398.915
398.729
398.541
398.349
398.156
397.96
397.764
397.567
397.369
397.171
396.971
396.771
396.571
396.371
396.172
395.973
395.774
395.576
395.378
395.181
394.985
394.789
394.594
394.399
394.397
394.41
394.434
394.465
394.5
400
400
400
400
400
399.859
399.698
399.518
399.322
399.113
398.893
398.665
398.429
398.188
397.942
397.693
397.441
397.187
396.931
396.674
396.414
396.154
395.892
395.629
395.367
395.105
394.843
394.581
394.319
394.058
393.798
393.538
393.279
393.02
392.763
392.835
392.928
393.031
393.137
393.235
400
400
400
400
400
399.891
399.771
399.641
399.499
399.347
399.185
399.013
398.833
398.644
398.449
398.246
398.038
397.824
397.605
397.383
397.157
396.928
396.697
396.462
396.225
395.986
395.745
395.503
395.26
395.016
394.771
394.525
394.28
394.035
393.791
393.785
393.794
393.814
393.843
393.868
400
400
400
400
400
399.905
399.804
399.696
399.581
399.46
399.333
399.2
399.061
398.918
398.771
398.619
398.463
398.305
398.143
397.979
397.813
397.646
397.476
397.305
397.132
396.958
396.783
396.607
396.43
396.253
396.076
395.898
395.72
395.542
395.365
395.326
395.293
395.268
395.248
395.232
400
400
400
400
400
399.907
399.809
399.705
399.596
399.481
399.362
399.239
399.112
398.982
398.848
398.712
398.572
398.431
398.288
398.144
397.999
397.852
397.705
397.556
397.407
397.257
397.107
396.957
396.806
396.655
396.504
396.354
396.203
396.053
395.903
395.873
395.848
395.827
395.811
395.799
400
400
400
400
400
399.907
399.808
399.705
399.596
399.483
399.366
399.244
399.12
398.992
398.861
398.728
398.593
398.456
398.318
398.179
398.04
397.899
397.758
397.616
397.474
397.332
397.189
397.047
396.904
396.762
396.62
396.478
396.336
396.195
396.055
396.03
396.008
395.991
395.978
395.969
400
400
400
400
400
399.907
399.808
399.705
399.596
399.483
399.366
399.245
399.121
398.994
398.864
398.732
398.598
398.462
398.325
398.187
398.049
397.91
397.77
397.63
397.49
397.349
397.209
397.069
396.929
396.79
396.65
396.511
396.373
396.235
396.098
396.074
396.054
396.038
396.026
396.02
400
400
400
400
400
399.906
399.807
399.704
399.595
399.482
399.364
399.243
399.119
398.991
398.861
398.728
398.594
398.458
398.32
398.182
398.044
397.905
397.765
397.625
397.485
397.345
397.205
397.065
396.926
396.787
396.648
396.51
396.372
396.235
396.099
396.076
396.056
396.041
396.029
396.023
400
400
400
400
400
399.906
399.807
399.703
399.595
399.481
399.364
399.243
399.118
398.991
398.86
398.728
398.593
398.456
398.319
398.18
398.041
397.902
397.762
397.622
397.481
397.341
397.201
397.061
396.922
396.783
396.644
396.506
396.369
396.232
396.096
396.073
396.054
396.039
396.027
396.022
400
400
400
400
400
399.906
399.807
399.703
399.594
399.481
399.363
399.242
399.117
398.989
398.858
398.725
398.59
398.453
398.315
398.176
398.036
397.896
397.756
397.615
397.474
397.333
397.193
397.053
396.913
396.774
396.636
396.497
396.36
396.223
396.087
396.064
396.045