/*--------------------------------*- C++ -*----------------------------------*\
| =========                 |                                                 |
| \\      /  F ield         | OpenFOAM: The Open Source CFD Toolbox           |
|  \\    /   O peration     | Version:  5.0                                   |
|   \\  /    A nd           | Web:      www.OpenFOAM.org                      |
|    \\/     M anipulation  |                                                 |
\*---------------------------------------------------------------------------*/
FoamFile
{
    version     2.0;
    format      ascii;
    class       volVectorField;
    location    "300/porous";
    object      U;
}
// * * * * * * * * * * * * * * * * * * * * * * * * * * * * * * * * * * * * * //

dimensions      [0 1 -1 0 0 0 0];

internalField   nonuniform List<vector> 
36000
(
(0.00555056 7.02127e-05 0.000289042)
(0.00340903 4.42548e-05 6.71224e-05)
(0.00220329 3.69639e-05 1.37094e-05)
(0.00180686 3.07685e-05 1.60336e-06)
(0.00158038 2.55944e-05 1.9377e-07)
(0.00143087 2.16609e-05 -4.36063e-08)
(0.00131992 1.86587e-05 -9.9205e-08)
(0.00123221 1.63201e-05 -1.35693e-07)
(0.00116052 1.44475e-05 -1.60065e-07)
(0.00110042 1.2912e-05 -1.72949e-07)
(0.00104907 1.16278e-05 -1.77882e-07)
(0.00100455 1.05356e-05 -1.7742e-07)
(0.000965469 9.59366e-06 -1.73394e-07)
(0.000930828 8.77161e-06 -1.67057e-07)
(0.000899864 8.04683e-06 -1.59233e-07)
(0.000871988 7.40224e-06 -1.50508e-07)
(0.000846738 6.82463e-06 -1.41274e-07)
(0.000823745 6.30373e-06 -1.31813e-07)
(0.000802708 5.83138e-06 -1.22319e-07)
(0.000783383 5.40101e-06 -1.12938e-07)
(0.000765564 5.0073e-06 -1.03764e-07)
(0.00074908 4.64585e-06 -9.48615e-08)
(0.000733786 4.31305e-06 -8.62882e-08)
(0.000719559 4.00584e-06 -7.80643e-08)
(0.000706291 3.7217e-06 -7.02206e-08)
(0.000693891 3.4585e-06 -6.27686e-08)
(0.000682277 3.21451e-06 -5.57304e-08)
(0.000671378 2.98819e-06 -4.91061e-08)
(0.000661134 2.77851e-06 -4.29332e-08)
(0.000651484 2.58398e-06 -3.7159e-08)
(0.000642388 2.40481e-06 -3.19611e-08)
(0.00063378 2.23694e-06 -2.68586e-08)
(0.00062567 2.08762e-06 -2.30723e-08)
(0.000617891 1.93337e-06 -1.7261e-08)
(0.000610756 1.83144e-06 -1.79763e-08)
(0.000603333 1.62503e-06 -2.32112e-09)
(0.000597939 1.70423e-06 -2.95183e-08)
(0.000588568 1.09431e-06 5.84819e-08)
(0.000589849 1.94196e-06 -1.52401e-07)
(0.000568288 4.28156e-08 6.00574e-07)
(0.00562429 8.38019e-05 0.000295874)
(0.00352515 5.57859e-05 6.94443e-05)
(0.00238476 4.95062e-05 1.59396e-05)
(0.00202138 4.17585e-05 3.37245e-06)
(0.00182312 3.58425e-05 1.57099e-06)
(0.00169624 3.13323e-05 1.11423e-06)
(0.0016036 2.77807e-05 9.06686e-07)
(0.00153095 2.49103e-05 7.56707e-07)
(0.00147176 2.25175e-05 6.42937e-07)
(0.00142217 2.04752e-05 5.57477e-07)
(0.00137972 1.86995e-05 4.92088e-07)
(0.00134278 1.71334e-05 4.41027e-07)
(0.00131018 1.57368e-05 4.00301e-07)
(0.00128111 1.44804e-05 3.67147e-07)
(0.00125493 1.33422e-05 3.39654e-07)
(0.00123117 1.23053e-05 3.16476e-07)
(0.00120947 1.13565e-05 2.96627e-07)
(0.00118953 1.04852e-05 2.79395e-07)
(0.00117111 9.68274e-06 2.64251e-07)
(0.00115403 8.94191e-06 2.50783e-07)
(0.00113812 8.25676e-06 2.38687e-07)
(0.00112326 7.62219e-06 2.27727e-07)
(0.00110933 7.03388e-06 2.17707e-07)
(0.00109625 6.48814e-06 2.08482e-07)
(0.00108392 5.98185e-06 1.99926e-07)
(0.00107228 5.51241e-06 1.91941e-07)
(0.00106127 5.07772e-06 1.84429e-07)
(0.00105083 4.67597e-06 1.77333e-07)
(0.00104093 4.30594e-06 1.70562e-07)
(0.00103151 3.96562e-06 1.6409e-07)
(0.00102255 3.65537e-06 1.57808e-07)
(0.001014 3.36828e-06 1.51848e-07)
(0.00100588 3.11514e-06 1.45768e-07)
(0.000998065 2.85565e-06 1.40714e-07)
(0.000990773 2.68232e-06 1.3378e-07)
(0.000983407 2.32236e-06 1.32989e-07)
(0.000977479 2.47008e-06 1.16674e-07)
(0.000968933 1.23263e-06 1.51152e-07)
(0.000968265 3.3172e-06 1.61051e-08)
(0.000949539 -2.54898e-06 6.4499e-07)
(0.00561665 4.31986e-05 0.000294818)
(0.00351435 3.87549e-05 6.83114e-05)
(0.00239037 3.89918e-05 1.53282e-05)
(0.00203483 3.50479e-05 2.96223e-06)
(0.00184471 3.11662e-05 1.26848e-06)
(0.00172533 2.78118e-05 8.86459e-07)
(0.00163969 2.49083e-05 7.21891e-07)
(0.00157364 2.24204e-05 5.9765e-07)
(0.00152072 2.02732e-05 4.99539e-07)
(0.00147707 1.84035e-05 4.23724e-07)
(0.00144027 1.67601e-05 3.64415e-07)
(0.00140869 1.53028e-05 3.1731e-07)
(0.00138119 1.40001e-05 2.79305e-07)
(0.00135694 1.28274e-05 2.48196e-07)
(0.00133534 1.17654e-05 2.22419e-07)
(0.00131593 1.07985e-05 2.00821e-07)
(0.00129834 9.91423e-06 1.82561e-07)
(0.00128229 9.10259e-06 1.66998e-07)
(0.00126757 8.35532e-06 1.53641e-07)
(0.00125398 7.66561e-06 1.42099e-07)
(0.00124139 7.02779e-06 1.32065e-07)
(0.00122967 6.4371e-06 1.233e-07)
(0.00121871 5.88958e-06 1.15603e-07)
(0.00120844 5.38191e-06 1.08809e-07)
(0.00119877 4.91138e-06 1.02785e-07)
(0.00118966 4.47576e-06 9.74161e-08)
(0.00118104 4.07337e-06 9.26082e-08)
(0.00117288 3.7027e-06 8.82786e-08)
(0.00116513 3.36276e-06 8.43553e-08)
(0.00115776 3.05162e-06 8.07987e-08)
(0.00115075 2.76923e-06 7.75007e-08)
(0.00114406 2.50855e-06 7.4578e-08)
(0.00113769 2.27796e-06 7.16354e-08)
(0.00113158 2.03883e-06 6.95931e-08)
(0.00112586 1.87268e-06 6.61596e-08)
(0.00112012 1.52142e-06 6.71485e-08)
(0.00111538 1.6452e-06 5.85333e-08)
(0.00110898 3.2994e-07 7.60552e-08)
(0.00110758 2.67628e-06 2.01935e-08)
(0.00109454 -4.96086e-06 3.41269e-07)
(0.00560903 3.72179e-05 0.000295464)
(0.00349577 4.16684e-05 6.89141e-05)
(0.00237452 4.09011e-05 1.5737e-05)
(0.00202133 3.65959e-05 3.25869e-06)
(0.00183431 3.22541e-05 1.48091e-06)
(0.00171797 2.84864e-05 1.04272e-06)
(0.00163519 2.52718e-05 8.38266e-07)
(0.00157184 2.25653e-05 6.87109e-07)
(0.00152146 2.02753e-05 5.71009e-07)
(0.00148021 1.83189e-05 4.8309e-07)
(0.0014457 1.66287e-05 4.15583e-07)
(0.0014163 1.51519e-05 3.62873e-07)
(0.0013909 1.38477e-05 3.2097e-07)
(0.00136869 1.26848e-05 2.87079e-07)
(0.00134905 1.16392e-05 2.59241e-07)
(0.00133154 1.06919e-05 2.36038e-07)
(0.00131579 9.8284e-06 2.16457e-07)
(0.00130153 9.03705e-06 1.99732e-07)
(0.00128855 8.30863e-06 1.85294e-07)
(0.00127665 7.63579e-06 1.72704e-07)
(0.0012657 7.01254e-06 1.61629e-07)
(0.00125557 6.43403e-06 1.51807e-07)
(0.00124617 5.89629e-06 1.43029e-07)
(0.0012374 5.39608e-06 1.35127e-07)
(0.0012292 4.93083e-06 1.27972e-07)
(0.00122152 4.49842e-06 1.2145e-07)
(0.00121429 4.09723e-06 1.15478e-07)
(0.00120748 3.7258e-06 1.09975e-07)
(0.00120104 3.38311e-06 1.04882e-07)
(0.00119495 3.06708e-06 1.00153e-07)
(0.00118918 2.77755e-06 9.57155e-08)
(0.00118369 2.50719e-06 9.16157e-08)
(0.0011785 2.26438e-06 8.76067e-08)
(0.00117353 2.0104e-06 8.42116e-08)
(0.00116888 1.82635e-06 8.01127e-08)
(0.00116428 1.4617e-06 7.83068e-08)
(0.00116029 1.54973e-06 7.22975e-08)
(0.00115543 3.19514e-07 7.40294e-08)
(0.00115327 2.40375e-06 6.27516e-08)
(0.00114426 -4.18525e-06 1.69663e-07)
(0.00560508 2.48873e-05 0.00029527)
(0.00348634 3.19097e-05 6.8561e-05)
(0.00236678 3.29948e-05 1.53586e-05)
(0.00201478 3.08458e-05 2.95256e-06)
(0.00182897 2.80114e-05 1.23553e-06)
(0.00171363 2.52317e-05 8.45312e-07)
(0.00163167 2.26644e-05 6.7598e-07)
(0.00156903 2.03784e-05 5.50668e-07)
(0.00151928 1.83655e-05 4.53597e-07)
(0.00147863 1.65966e-05 3.79674e-07)
(0.00144469 1.50381e-05 3.22504e-07)
(0.00141587 1.36584e-05 2.77488e-07)
(0.00139103 1.243e-05 2.41376e-07)
(0.00136938 1.13296e-05 2.11916e-07)
(0.00135031 1.03381e-05 1.87532e-07)
(0.00133337 9.44008e-06 1.67092e-07)
(0.0013182 8.62258e-06 1.49782e-07)
(0.00130453 7.87522e-06 1.3499e-07)
(0.00129212 7.18945e-06 1.22243e-07)
(0.00128081 6.55826e-06 1.11188e-07)
(0.00127044 5.97584e-06 1.01545e-07)
(0.00126089 5.43744e-06 9.30831e-08)
(0.00125207 4.93908e-06 8.56248e-08)
(0.00124388 4.47748e-06 7.90211e-08)
(0.00123626 4.04998e-06 7.31559e-08)
(0.00122915 3.65438e-06 6.79279e-08)
(0.00122249 3.2889e-06 6.32537e-08)
(0.00121623 2.95193e-06 5.90618e-08)
(0.00121035 2.64224e-06 5.5293e-08)
(0.00120481 2.35766e-06 5.19062e-08)
(0.00119958 2.09781e-06 4.88379e-08)
(0.00119463 1.85588e-06 4.61026e-08)
(0.00118995 1.63935e-06 4.3542e-08)
(0.00118551 1.41397e-06 4.14158e-08)
(0.00118131 1.25197e-06 3.90862e-08)
(0.00117726 9.37159e-07 3.76474e-08)
(0.00117351 1.01605e-06 3.6109e-08)
(0.00116962 1.44563e-08 2.92445e-08)
(0.00116656 1.74205e-06 5.47105e-08)
(0.00116085 -3.23068e-06 2.37036e-08)
(0.005603 2.06431e-05 0.000295425)
(0.00348001 3.00625e-05 6.88203e-05)
(0.0023591 3.20574e-05 1.56022e-05)
(0.00200672 3.05767e-05 3.1746e-06)
(0.00182116 2.80205e-05 1.42759e-06)
(0.0017063 2.52901e-05 1.00838e-06)
(0.00162491 2.26849e-05 8.13361e-07)
(0.00156283 2.03337e-05 6.66822e-07)
(0.00151364 1.82594e-05 5.52769e-07)
(0.0014735 1.64447e-05 4.65394e-07)
(0.00144003 1.48583e-05 3.97614e-07)
(0.00141164 1.34671e-05 3.44217e-07)
(0.00138721 1.22403e-05 3.01451e-07)
(0.00136593 1.11517e-05 2.66663e-07)
(0.0013472 1.01792e-05 2.37966e-07)
(0.00133059 9.30487e-06 2.13989e-07)
(0.00131573 8.51388e-06 1.93731e-07)
(0.00130234 7.79434e-06 1.76434e-07)
(0.00129022 7.13664e-06 1.61524e-07)
(0.00127918 6.53293e-06 1.48569e-07)
(0.00126907 5.97689e-06 1.37214e-07)
(0.00125979 5.46333e-06 1.27198e-07)
(0.00125122 4.98805e-06 1.183e-07)
(0.00124328 4.54762e-06 1.10348e-07)
(0.0012359 4.13926e-06 1.03205e-07)
(0.00122903 3.76068e-06 9.67481e-08)
(0.00122261 3.41004e-06 9.08918e-08)
(0.00121659 3.08569e-06 8.55512e-08)
(0.00121095 2.78634e-06 8.06657e-08)
(0.00120564 2.50993e-06 7.61797e-08)
(0.00120064 2.25608e-06 7.20368e-08)
(0.00119592 2.01878e-06 6.82201e-08)
(0.00119146 1.80509e-06 6.46518e-08)
(0.00118724 1.58563e-06 6.13513e-08)
(0.00118323 1.42412e-06 5.82836e-08)
(0.00117944 1.14107e-06 5.49007e-08)
(0.00117572 1.18864e-06 5.43915e-08)
(0.00117242 4.14056e-07 3.96795e-08)
(0.00116864 1.7137e-06 8.1384e-08)
(0.00116486 -1.6716e-06 -2.29204e-08)
(0.00560161 1.56281e-05 0.000295385)
(0.00347577 2.40841e-05 6.87263e-05)
(0.00235408 2.62754e-05 1.54538e-05)
(0.00200186 2.55913e-05 3.02374e-06)
(0.00181672 2.38356e-05 1.2881e-06)
(0.00170234 2.17705e-05 8.83481e-07)
(0.00162138 1.96993e-05 7.03195e-07)
(0.00155968 1.77658e-05 5.70221e-07)
(0.00151079 1.60177e-05 4.68035e-07)
(0.0014709 1.446e-05 3.90703e-07)
(0.00143764 1.30792e-05 3.31268e-07)
(0.00140942 1.18554e-05 2.84738e-07)
(0.00138513 1.07677e-05 2.47593e-07)
(0.00136397 9.79683e-06 2.17413e-07)
(0.00134537 8.9259e-06 1.92493e-07)
(0.00132885 8.14055e-06 1.71639e-07)
(0.00131409 7.42882e-06 1.53977e-07)
(0.00130079 6.78077e-06 1.38862e-07)
(0.00128876 6.18826e-06 1.25808e-07)
(0.0012778 5.64457e-06 1.14451e-07)
(0.00126778 5.14421e-06 1.04496e-07)
(0.00125857 4.68262e-06 9.57187e-08)
(0.00125009 4.25607e-06 8.79387e-08)
(0.00124223 3.86148e-06 8.10076e-08)
(0.00123493 3.49633e-06 7.48128e-08)
(0.00122814 3.15854e-06 6.92453e-08)
(0.0012218 2.84638e-06 6.42342e-08)
(0.00121587 2.5583e-06 5.97074e-08)
(0.0012103 2.2931e-06 5.56093e-08)
(0.00120507 2.04891e-06 5.18875e-08)
(0.00120015 1.82543e-06 4.85085e-08)
(0.00119551 1.6176e-06 4.54252e-08)
(0.00119113 1.43175e-06 4.26421e-08)
(0.00118699 1.244e-06 3.99903e-08)
(0.00118304 1.10797e-06 3.79378e-08)
(0.00117937 8.8214e-07 3.4695e-08)
(0.00117561 9.24522e-07 3.6724e-08)
(0.00117269 3.72991e-07 1.86809e-08)
(0.00116844 1.35562e-06 7.16431e-08)
(0.00116622 -8.28923e-07 -7.18647e-08)
(0.00560094 1.2886e-05 0.000295428)
(0.00347324 2.10616e-05 6.88154e-05)
(0.00235028 2.37315e-05 1.55517e-05)
(0.00199752 2.36639e-05 3.12786e-06)
(0.00181221 2.23869e-05 1.39143e-06)
(0.00169789 2.06365e-05 9.80939e-07)
(0.00161708 1.87667e-05 7.92585e-07)
(0.0015556 1.69605e-05 6.50987e-07)
(0.00150694 1.52964e-05 5.40515e-07)
(0.00146728 1.37994e-05 4.55636e-07)
(0.00143424 1.24677e-05 3.89542e-07)
(0.00140622 1.12879e-05 3.37254e-07)
(0.00138212 1.02427e-05 2.95186e-07)
(0.00136113 9.31392e-06 2.60816e-07)
(0.00134268 8.48524e-06 2.32349e-07)
(0.0013263 7.74213e-06 2.08478e-07)
(0.00131166 7.0723e-06 1.88247e-07)
(0.00129849 6.46546e-06 1.70936e-07)
(0.00128656 5.91307e-06 1.5599e-07)
(0.0012757 5.40812e-06 1.42982e-07)
(0.00126577 4.94484e-06 1.31583e-07)
(0.00125665 4.5185e-06 1.21526e-07)
(0.00124824 4.12522e-06 1.12597e-07)
(0.00124045 3.76184e-06 1.04627e-07)
(0.00123323 3.42575e-06 9.74766e-08)
(0.0012265 3.11482e-06 9.10257e-08)
(0.00122022 2.82732e-06 8.51887e-08)
(0.00121435 2.56164e-06 7.98787e-08)
(0.00120884 2.31663e-06 7.50358e-08)
(0.00120367 2.09056e-06 7.0601e-08)
(0.0011988 1.88316e-06 6.65328e-08)
(0.00119421 1.69031e-06 6.27646e-08)
(0.00118988 1.51754e-06 5.93497e-08)
(0.0011858 1.34612e-06 5.59687e-08)
(0.00118188 1.21994e-06 5.3455e-08)
(0.0011783 1.03118e-06 4.9066e-08)
(0.00117451 1.05407e-06 5.14712e-08)
(0.00117184 6.6497e-07 2.97934e-08)
(0.00116728 1.37189e-06 8.72477e-08)
(0.00116587 -2.77249e-09 -7.9094e-08)
(0.00560043 1.0174e-05 0.000295418)
(0.00347131 1.70114e-05 6.87909e-05)
(0.0023474 1.94198e-05 1.54997e-05)
(0.00199439 1.95643e-05 3.06469e-06)
(0.00180912 1.86545e-05 1.32493e-06)
(0.00169498 1.72905e-05 9.14601e-07)
(0.00161442 1.57846e-05 7.28837e-07)
(0.00155318 1.43022e-05 5.91168e-07)
(0.00150474 1.29196e-05 4.85217e-07)
(0.00146528 1.16651e-05 4.04937e-07)
(0.00143241 1.05423e-05 3.43244e-07)
(0.00140453 9.54314e-06 2.94998e-07)
(0.00138054 8.65474e-06 2.56568e-07)
(0.00135966 7.86323e-06 2.25416e-07)
(0.00134128 7.15547e-06 1.99763e-07)
(0.00132498 6.5197e-06 1.78352e-07)
(0.0013104 5.94583e-06 1.60254e-07)
(0.00129727 5.42536e-06 1.44799e-07)
(0.00128539 4.95123e-06 1.31469e-07)
(0.00127457 4.51759e-06 1.19876e-07)
(0.00126467 4.11964e-06 1.09718e-07)
(0.00125558 3.75341e-06 1.00758e-07)
(0.0012472 3.41566e-06 9.28057e-08)
(0.00123945 3.10373e-06 8.57144e-08)
(0.00123225 2.81544e-06 7.93592e-08)
(0.00122555 2.54895e-06 7.36373e-08)
(0.0012193 2.30281e-06 6.8468e-08)
(0.00121345 2.07566e-06 6.37857e-08)
(0.00120797 1.86653e-06 5.95274e-08)
(0.00120281 1.67398e-06 5.5649e-08)
(0.00119797 1.49787e-06 5.21182e-08)
(0.0011934 1.33501e-06 4.88517e-08)
(0.00118909 1.19013e-06 4.59654e-08)
(0.00118503 1.0491e-06 4.30141e-08)
(0.00118112 9.46884e-07 4.1147e-08)
(0.00117759 8.04006e-07 3.69204e-08)
(0.00117378 8.25849e-07 4.07172e-08)
(0.00117131 5.71333e-07 1.79104e-08)
(0.00116657 1.09886e-06 8.01735e-08)
(0.00116587 2.67444e-07 -9.90323e-08)
(0.00560017 8.22273e-06 0.00029543)
(0.00347016 1.41092e-05 6.88215e-05)
(0.00234539 1.64737e-05 1.55359e-05)
(0.00199195 1.69033e-05 3.10738e-06)
(0.00180648 1.6352e-05 1.37214e-06)
(0.00169229 1.53172e-05 9.63381e-07)
(0.00161176 1.40886e-05 7.77196e-07)
(0.00155061 1.28303e-05 6.37813e-07)
(0.00150229 1.16276e-05 5.2937e-07)
(0.00146296 1.05188e-05 4.46223e-07)
(0.0014302 9.51658e-06 3.8155e-07)
(0.00140244 8.61945e-06 3.30388e-07)
(0.00137856 7.81955e-06 2.89208e-07)
(0.00135778 7.10648e-06 2.55521e-07)
(0.0013395 6.46943e-06 2.27577e-07)
(0.00132328 5.89828e-06 2.04108e-07)
(0.00130877 5.38404e-06 1.84185e-07)
(0.00129572 4.91896e-06 1.67106e-07)
(0.0012839 4.49649e-06 1.52347e-07)
(0.00127314 4.11116e-06 1.39488e-07)
(0.0012633 3.75842e-06 1.28205e-07)
(0.00125426 3.43451e-06 1.18249e-07)
(0.00124592 3.13634e-06 1.09407e-07)
(0.00123821 2.86135e-06 1.01514e-07)
(0.00123106 2.60745e-06 9.44349e-08)
(0.00122439 2.37289e-06 8.80561e-08)
(0.00121818 2.15626e-06 8.22856e-08)
(0.00121236 1.95629e-06 7.70444e-08)
(0.00120691 1.77202e-06 7.22716e-08)
(0.00120179 1.60225e-06 6.79044e-08)
(0.00119697 1.44681e-06 6.39168e-08)
(0.00119243 1.30327e-06 6.02046e-08)
(0.00118814 1.17553e-06 5.69138e-08)
(0.00118411 1.0532e-06 5.35124e-08)
(0.00118022 9.63414e-07 5.1334e-08)
(0.00117674 8.49101e-07 4.64476e-08)
(0.00117293 8.60052e-07 5.03135e-08)
(0.00117059 6.90319e-07 2.57402e-08)
(0.00116575 1.06519e-06 8.95266e-08)
(0.00116538 5.58858e-07 -9.86892e-08)
(0.00559996 6.37933e-06 0.000295427)
(0.00346924 1.10402e-05 6.88153e-05)
(0.00234381 1.2993e-05 1.55186e-05)
(0.00199008 1.33998e-05 3.08331e-06)
(0.00180451 1.30075e-05 1.34402e-06)
(0.00169035 1.2205e-05 9.32568e-07)
(0.00160993 1.12315e-05 7.45151e-07)
(0.00154892 1.02247e-05 6.05693e-07)
(0.00150074 9.2575e-06 4.98002e-07)
(0.00146154 8.36395e-06 4.16136e-07)
(0.00142891 7.55569e-06 3.53054e-07)
(0.00140126 6.83241e-06 3.03628e-07)
(0.00137747 6.188e-06 2.64207e-07)
(0.00135677 5.61405e-06 2.32238e-07)
(0.00133855 5.10174e-06 2.05921e-07)
(0.00132239 4.64279e-06 1.83968e-07)
(0.00130793 4.22982e-06 1.65422e-07)
(0.00129492 3.8565e-06 1.49598e-07)
(0.00128313 3.51748e-06 1.35964e-07)
(0.0012724 3.20831e-06 1.24117e-07)
(0.00126259 2.92533e-06 1.13745e-07)
(0.00125357 2.66551e-06 1.046e-07)
(0.00124526 2.42636e-06 9.64839e-08)
(0.00123757 2.20586e-06 8.92488e-08)
(0.00123043 2.00232e-06 8.27607e-08)
(0.00122378 1.81438e-06 7.69145e-08)
(0.00121758 1.64088e-06 7.16334e-08)
(0.00121178 1.48087e-06 6.68422e-08)
(0.00120634 1.33359e-06 6.24835e-08)
(0.00120123 1.19812e-06 5.84996e-08)
(0.00119642 1.07441e-06 5.4877e-08)
(0.0011919 9.60717e-07 5.15018e-08)
(0.00118762 8.60191e-07 4.85532e-08)
(0.0011836 7.65543e-07 4.54359e-08)
(0.00117973 6.97253e-07 4.36543e-08)
(0.00117628 6.15632e-07 3.89236e-08)
(0.00117246 6.27864e-07 4.35254e-08)
(0.00117022 5.26007e-07 1.86153e-08)
(0.00116533 8.05153e-07 8.46416e-08)
(0.0011653 5.14708e-07 -1.08889e-07)
(0.00559985 4.82813e-06 0.00029543)
(0.00346868 8.44927e-06 6.88258e-05)
(0.00234275 1.00857e-05 1.55316e-05)
(0.00198873 1.05288e-05 3.09971e-06)
(0.00180301 1.03337e-05 1.3637e-06)
(0.00168879 9.78562e-06 9.54399e-07)
(0.00160837 9.07381e-06 7.68242e-07)
(0.0015474 8.31158e-06 6.2928e-07)
(0.00149928 7.56279e-06 5.2146e-07)
(0.00146014 6.86001e-06 4.39001e-07)
(0.00142758 6.21693e-06 3.75008e-07)
(0.00139999 5.63655e-06 3.24484e-07)
(0.00137627 5.11624e-06 2.83875e-07)
(0.00135562 4.65081e-06 2.50691e-07)
(0.00133746 4.23416e-06 2.23179e-07)
(0.00132135 3.86024e-06 2.00079e-07)
(0.00130694 3.52348e-06 1.80465e-07)
(0.00129396 3.21898e-06 1.63654e-07)
(0.00128222 2.94252e-06 1.49116e-07)
(0.00127152 2.69054e-06 1.36449e-07)
(0.00126174 2.46007e-06 1.25331e-07)
(0.00125276 2.24862e-06 1.15516e-07)
(0.00124447 2.05414e-06 1.06798e-07)
(0.00123681 1.87495e-06 9.90145e-08)
(0.00122969 1.70962e-06 9.20345e-08)
(0.00122307 1.55698e-06 8.57434e-08)
(0.00121689 1.41609e-06 8.00559e-08)
(0.00121111 1.2861e-06 7.48866e-08)
(0.00120569 1.16638e-06 7.01892e-08)
(0.0012006 1.05621e-06 6.58896e-08)
(0.00119581 9.55513e-07 6.19717e-08)
(0.0011913 8.63046e-07 5.8316e-08)
(0.00118704 7.81204e-07 5.5112e-08)
(0.00118304 7.05033e-07 5.17171e-08)
(0.00117918 6.49296e-07 4.97418e-08)
(0.00117576 5.87294e-07 4.46455e-08)
(0.00117195 5.9265e-07 4.92013e-08)
(0.00116978 5.27745e-07 2.34353e-08)
(0.00116486 7.17518e-07 8.99322e-08)
(0.00116498 5.45245e-07 -1.07708e-07)
(0.00559976 3.35122e-06 0.000295428)
(0.00346827 5.87521e-06 6.88239e-05)
(0.00234197 7.04128e-06 1.5526e-05)
(0.00198774 7.35768e-06 3.09124e-06)
(0.00180193 7.22126e-06 1.35302e-06)
(0.0016877 6.82797e-06 9.41777e-07)
(0.00160731 6.31504e-06 7.54216e-07)
(0.0015464 5.76527e-06 6.1442e-07)
(0.00149835 5.22578e-06 5.06246e-07)
(0.0014593 4.72078e-06 4.23815e-07)
(0.00142681 4.26035e-06 3.60145e-07)
(0.00139929 3.84661e-06 3.10139e-07)
(0.00137562 3.47742e-06 2.70175e-07)
(0.00135502 3.14872e-06 2.3771e-07)
(0.00133691 2.85578e-06 2.10943e-07)
(0.00132083 2.59399e-06 1.88583e-07)
(0.00130645 2.35909e-06 1.69692e-07)
(0.0012935 2.14737e-06 1.53561e-07)
(0.00128178 1.95567e-06 1.39657e-07)
(0.0012711 1.78134e-06 1.27574e-07)
(0.00126134 1.62217e-06 1.16991e-07)
(0.00125237 1.47636e-06 1.07661e-07)
(0.0012441 1.34241e-06 9.93844e-08)
(0.00123645 1.21911e-06 9.20019e-08)
(0.00122934 1.10545e-06 8.53854e-08)
(0.00122273 1.0006e-06 7.9425e-08)
(0.00121656 9.03905e-07 7.40371e-08)
(0.00121079 8.14778e-07 6.91414e-08)
(0.00120538 7.32802e-07 6.46929e-08)
(0.00120029 6.57485e-07 6.0625e-08)
(0.00119551 5.88833e-07 5.69258e-08)
(0.00119101 5.26048e-07 5.34646e-08)
(0.00118675 4.70844e-07 5.04622e-08)
(0.00118277 4.20122e-07 4.72342e-08)
(0.00117891 3.83859e-07 4.54677e-08)
(0.00117551 3.45264e-07 4.04801e-08)
(0.0011717 3.52277e-07 4.54017e-08)
(0.00116958 3.18953e-07 1.95628e-08)
(0.00116465 4.51591e-07 8.70642e-08)
(0.00116493 3.63132e-07 -1.12869e-07)
(0.00559971 1.99019e-06 0.000295428)
(0.00346803 3.50312e-06 6.88265e-05)
(0.00234151 4.23884e-06 1.553e-05)
(0.00198714 4.46391e-06 3.09678e-06)
(0.00180125 4.41941e-06 1.36009e-06)
(0.00168697 4.21439e-06 9.49986e-07)
(0.00160658 3.93053e-06 7.63282e-07)
(0.00154568 3.61758e-06 6.24063e-07)
(0.00149767 3.30469e-06 5.16179e-07)
(0.00145864 3.00747e-06 4.33799e-07)
(0.00142618 2.7331e-06 3.69986e-07)
(0.00139869 2.48381e-06 3.19691e-07)
(0.00137506 2.25912e-06 2.79343e-07)
(0.00135448 2.05725e-06 2.46432e-07)
(0.00133639 1.87589e-06 2.19191e-07)
(0.00132033 1.71264e-06 1.96349e-07)
(0.00130598 1.56524e-06 1.76984e-07)
(0.00129305 1.4317e-06 1.60398e-07)
(0.00128135 1.31024e-06 1.46068e-07)
(0.00127069 1.19941e-06 1.33585e-07)
(0.00126094 1.09793e-06 1.22635e-07)
(0.00125199 1.00476e-06 1.12972e-07)
(0.00124373 9.19026e-07 1.0439e-07)
(0.00123609 8.39992e-07 9.67297e-08)
(0.001229 7.67055e-07 8.98584e-08)
(0.0012224 6.99705e-07 8.36667e-08)
(0.00121624 6.37525e-07 7.80719e-08)
(0.00121048 5.80146e-07 7.29896e-08)
(0.00120507 5.27287e-07 6.83655e-08)
(0.0012 4.78658e-07 6.41329e-08)
(0.00119523 4.34229e-07 6.02859e-08)
(0.00119073 3.9355e-07 5.66877e-08)
(0.00118648 3.57617e-07 5.35569e-08)
(0.00118251 3.24711e-07 5.01957e-08)
(0.00117866 3.0054e-07 4.83292e-08)
(0.00117527 2.75857e-07 4.31789e-08)
(0.00117147 2.77261e-07 4.80507e-08)
(0.00116938 2.5776e-07 2.18632e-08)
(0.00116444 3.28424e-07 8.94647e-08)
(0.00116477 2.80464e-07 -1.12139e-07)
(0.00559969 6.53512e-07 0.000295425)
(0.00346791 1.14437e-06 6.8825e-05)
(0.00234128 1.38021e-06 1.55283e-05)
(0.00198683 1.44108e-06 3.09449e-06)
(0.00180091 1.41188e-06 1.35718e-06)
(0.00168662 1.32866e-06 9.46341e-07)
(0.00160624 1.22004e-06 7.59038e-07)
(0.00154536 1.10349e-06 6.19403e-07)
(0.00149736 9.89242e-07 5.11259e-07)
(0.00145836 8.82706e-07 4.2876e-07)
(0.00142593 7.86214e-07 3.64933e-07)
(0.00139846 7.00262e-07 3.14719e-07)
(0.00137485 6.24392e-07 2.74513e-07)
(0.0013543 5.5765e-07 2.41784e-07)
(0.00133622 4.98944e-07 2.14748e-07)
(0.00132018 4.47166e-07 1.92129e-07)
(0.00130583 4.01308e-07 1.72986e-07)
(0.00129292 3.60488e-07 1.56619e-07)
(0.00128122 3.23942e-07 1.42494e-07)
(0.00127057 2.91052e-07 1.30213e-07)
(0.00126083 2.61297e-07 1.19451e-07)
(0.00125188 2.34254e-07 1.09953e-07)
(0.00124363 2.09574e-07 1.01532e-07)
(0.001236 1.86988e-07 9.40196e-08)
(0.00122891 1.66271e-07 8.72767e-08)
(0.00122231 1.47247e-07 8.12063e-08)
(0.00121616 1.29777e-07 7.57203e-08)
(0.0012104 1.13743e-07 7.0743e-08)
(0.001205 9.90526e-08 6.62118e-08)
(0.00119993 8.56141e-08 6.20687e-08)
(0.00119516 7.34441e-08 5.83034e-08)
(0.00119067 6.24129e-08 5.47806e-08)
(0.00118642 5.28474e-08 5.17229e-08)
(0.00118245 4.42295e-08 4.84276e-08)
(0.0011786 3.84444e-08 4.66404e-08)
(0.00117522 3.26057e-08 4.15355e-08)
(0.00117142 3.54457e-08 4.65226e-08)
(0.00116934 3.22366e-08 2.03496e-08)
(0.0011644 6.00033e-08 8.82066e-08)
(0.00116479 5.02543e-08 -1.14037e-07)
(0.00559969 -6.53518e-07 0.000295425)
(0.00346791 -1.14438e-06 6.8825e-05)
(0.00234128 -1.38022e-06 1.55283e-05)
(0.00198683 -1.44108e-06 3.09449e-06)
(0.00180091 -1.41188e-06 1.35718e-06)
(0.00168662 -1.32866e-06 9.46341e-07)
(0.00160624 -1.22004e-06 7.59039e-07)
(0.00154536 -1.10349e-06 6.19402e-07)
(0.00149736 -9.89239e-07 5.11257e-07)
(0.00145836 -8.82706e-07 4.28756e-07)
(0.00142593 -7.86213e-07 3.64936e-07)
(0.00139846 -7.00261e-07 3.14718e-07)
(0.00137485 -6.24388e-07 2.7451e-07)
(0.0013543 -5.57654e-07 2.41782e-07)
(0.00133622 -4.98945e-07 2.14748e-07)
(0.00132018 -4.47167e-07 1.92129e-07)
(0.00130583 -4.0131e-07 1.72988e-07)
(0.00129292 -3.6048e-07 1.56617e-07)
(0.00128122 -3.23935e-07 1.42498e-07)
(0.00127057 -2.9104e-07 1.3021e-07)
(0.00126083 -2.61274e-07 1.19448e-07)
(0.00125188 -2.34222e-07 1.09958e-07)
(0.00124363 -2.09534e-07 1.01532e-07)
(0.001236 -1.86938e-07 9.40186e-08)
(0.00122891 -1.66206e-07 8.72764e-08)
(0.00122231 -1.4717e-07 8.12054e-08)
(0.00121616 -1.29682e-07 7.57251e-08)
(0.0012104 -1.1362e-07 7.07417e-08)
(0.001205 -9.89002e-08 6.62152e-08)
(0.00119993 -8.54497e-08 6.20682e-08)
(0.00119516 -7.3247e-08 5.83031e-08)
(0.00119067 -6.21756e-08 5.47828e-08)
(0.00118642 -5.25844e-08 5.17236e-08)
(0.00118245 -4.39386e-08 4.8426e-08)
(0.0011786 -3.81399e-08 4.66397e-08)
(0.00117522 -3.22987e-08 4.15351e-08)
(0.00117142 -3.51384e-08 4.65224e-08)
(0.00116934 -3.19559e-08 2.0348e-08)
(0.0011644 -5.9743e-08 8.8209e-08)
(0.00116479 -5.00717e-08 -1.14037e-07)
(0.00559971 -1.9902e-06 0.000295428)
(0.00346803 -3.50313e-06 6.88265e-05)
(0.00234151 -4.23885e-06 1.553e-05)
(0.00198714 -4.46391e-06 3.09678e-06)
(0.00180125 -4.41942e-06 1.36009e-06)
(0.00168697 -4.2144e-06 9.49987e-07)
(0.00160658 -3.93052e-06 7.63282e-07)
(0.00154568 -3.61758e-06 6.24059e-07)
(0.00149767 -3.30468e-06 5.16181e-07)
(0.00145864 -3.00746e-06 4.33798e-07)
(0.00142618 -2.7331e-06 3.69986e-07)
(0.00139869 -2.4838e-06 3.19692e-07)
(0.00137506 -2.25912e-06 2.79342e-07)
(0.00135448 -2.05725e-06 2.46429e-07)
(0.00133639 -1.87588e-06 2.19193e-07)
(0.00132033 -1.71263e-06 1.96349e-07)
(0.00130598 -1.56524e-06 1.76984e-07)
(0.00129305 -1.43169e-06 1.60396e-07)
(0.00128135 -1.31024e-06 1.46065e-07)
(0.00127069 -1.1994e-06 1.33588e-07)
(0.00126094 -1.09791e-06 1.22637e-07)
(0.00125199 -1.00474e-06 1.12971e-07)
(0.00124373 -9.18983e-07 1.04389e-07)
(0.00123609 -8.39941e-07 9.67311e-08)
(0.001229 -7.66993e-07 8.98598e-08)
(0.0012224 -6.99627e-07 8.36697e-08)
(0.00121624 -6.3743e-07 7.80711e-08)
(0.00121048 -5.8003e-07 7.29891e-08)
(0.00120507 -5.2715e-07 6.83657e-08)
(0.0012 -4.78492e-07 6.4133e-08)
(0.00119523 -4.34027e-07 6.02857e-08)
(0.00119073 -3.93322e-07 5.66867e-08)
(0.00118648 -3.57362e-07 5.35536e-08)
(0.00118251 -3.24432e-07 5.01967e-08)
(0.00117866 -3.00244e-07 4.83304e-08)
(0.00117527 -2.75555e-07 4.31778e-08)
(0.00117147 -2.7696e-07 4.80499e-08)
(0.00116938 -2.57479e-07 2.18646e-08)
(0.00116444 -3.28155e-07 8.94636e-08)
(0.00116477 -2.80282e-07 -1.12142e-07)
(0.00559976 -3.35122e-06 0.000295428)
(0.00346827 -5.87521e-06 6.88239e-05)
(0.00234197 -7.04128e-06 1.5526e-05)
(0.00198774 -7.35769e-06 3.09125e-06)
(0.00180193 -7.22127e-06 1.35302e-06)
(0.0016877 -6.82798e-06 9.41773e-07)
(0.00160731 -6.31505e-06 7.54215e-07)
(0.0015464 -5.76527e-06 6.14422e-07)
(0.00149835 -5.22578e-06 5.06244e-07)
(0.0014593 -4.72077e-06 4.23814e-07)
(0.00142681 -4.26034e-06 3.60143e-07)
(0.00139929 -3.8466e-06 3.10139e-07)
(0.00137562 -3.47742e-06 2.70178e-07)
(0.00135502 -3.14871e-06 2.37709e-07)
(0.00133691 -2.85578e-06 2.10944e-07)
(0.00132083 -2.59398e-06 1.88586e-07)
(0.00130645 -2.35908e-06 1.69692e-07)
(0.0012935 -2.14736e-06 1.53562e-07)
(0.00128178 -1.95566e-06 1.39654e-07)
(0.0012711 -1.78132e-06 1.27572e-07)
(0.00126134 -1.62215e-06 1.1699e-07)
(0.00125237 -1.47633e-06 1.0766e-07)
(0.0012441 -1.34238e-06 9.93885e-08)
(0.00123645 -1.21906e-06 9.20016e-08)
(0.00122934 -1.1054e-06 8.53846e-08)
(0.00122273 -1.00053e-06 7.94242e-08)
(0.00121656 -9.03818e-07 7.40358e-08)
(0.00121079 -8.14671e-07 6.91443e-08)
(0.00120538 -7.32672e-07 6.46942e-08)
(0.00120029 -6.57329e-07 6.06223e-08)
(0.00119551 -5.88639e-07 5.69247e-08)
(0.00119101 -5.25832e-07 5.34676e-08)
(0.00118675 -4.70605e-07 5.04597e-08)
(0.00118277 -4.19857e-07 4.7235e-08)
(0.00117891 -3.83572e-07 4.54697e-08)
(0.00117551 -3.44976e-07 4.04805e-08)
(0.0011717 -3.51985e-07 4.54013e-08)
(0.00116958 -3.18678e-07 1.95655e-08)
(0.00116465 -4.51328e-07 8.70626e-08)
(0.00116493 -3.62951e-07 -1.12874e-07)
(0.00559985 -4.82814e-06 0.00029543)
(0.00346868 -8.44928e-06 6.88258e-05)
(0.00234275 -1.00857e-05 1.55316e-05)
(0.00198873 -1.05288e-05 3.09971e-06)
(0.00180301 -1.03337e-05 1.36369e-06)
(0.00168879 -9.78563e-06 9.54397e-07)
(0.00160837 -9.0738e-06 7.6824e-07)
(0.0015474 -8.31158e-06 6.2928e-07)
(0.00149928 -7.56279e-06 5.21459e-07)
(0.00146014 -6.86e-06 4.39003e-07)
(0.00142758 -6.21692e-06 3.75008e-07)
(0.00139999 -5.63654e-06 3.24484e-07)
(0.00137627 -5.11624e-06 2.83875e-07)
(0.00135562 -4.6508e-06 2.5069e-07)
(0.00133746 -4.23416e-06 2.23178e-07)
(0.00132135 -3.86024e-06 2.00078e-07)
(0.00130694 -3.52347e-06 1.80465e-07)
(0.00129396 -3.21897e-06 1.63656e-07)
(0.00128222 -2.9425e-06 1.4912e-07)
(0.00127152 -2.69052e-06 1.36451e-07)
(0.00126174 -2.46004e-06 1.25332e-07)
(0.00125276 -2.24859e-06 1.15516e-07)
(0.00124447 -2.05411e-06 1.068e-07)
(0.00123681 -1.8749e-06 9.90128e-08)
(0.00122969 -1.70956e-06 9.20337e-08)
(0.00122307 -1.55692e-06 8.57462e-08)
(0.00121689 -1.41601e-06 8.00551e-08)
(0.00121111 -1.286e-06 7.48885e-08)
(0.00120569 -1.16626e-06 7.01907e-08)
(0.0012006 -1.05606e-06 6.5889e-08)
(0.00119581 -9.55332e-07 6.19723e-08)
(0.0011913 -8.62845e-07 5.83154e-08)
(0.00118704 -7.80979e-07 5.51134e-08)
(0.00118304 -7.04783e-07 5.1718e-08)
(0.00117918 -6.49029e-07 4.97412e-08)
(0.00117576 -5.87019e-07 4.46442e-08)
(0.00117195 -5.9237e-07 4.92039e-08)
(0.00116978 -5.2748e-07 2.34337e-08)
(0.00116486 -7.17264e-07 8.99315e-08)
(0.00116498 -5.45053e-07 -1.0771e-07)
(0.00559996 -6.37934e-06 0.000295427)
(0.00346924 -1.10402e-05 6.88153e-05)
(0.00234381 -1.2993e-05 1.55186e-05)
(0.00199008 -1.33998e-05 3.08331e-06)
(0.00180451 -1.30075e-05 1.34402e-06)
(0.00169035 -1.2205e-05 9.32565e-07)
(0.00160993 -1.12315e-05 7.45154e-07)
(0.00154892 -1.02247e-05 6.05692e-07)
(0.00150074 -9.25751e-06 4.98002e-07)
(0.00146154 -8.36395e-06 4.16134e-07)
(0.00142891 -7.55569e-06 3.53053e-07)
(0.00140126 -6.83241e-06 3.03628e-07)
(0.00137747 -6.18799e-06 2.64207e-07)
(0.00135677 -5.61404e-06 2.3224e-07)
(0.00133855 -5.10174e-06 2.05922e-07)
(0.00132239 -4.64278e-06 1.83963e-07)
(0.00130793 -4.22981e-06 1.65423e-07)
(0.00129492 -3.85648e-06 1.49598e-07)
(0.00128313 -3.51746e-06 1.35966e-07)
(0.0012724 -3.20829e-06 1.24117e-07)
(0.00126259 -2.9253e-06 1.13745e-07)
(0.00125357 -2.66548e-06 1.04599e-07)
(0.00124526 -2.42633e-06 9.64853e-08)
(0.00123757 -2.20582e-06 8.92463e-08)
(0.00123043 -2.00227e-06 8.27576e-08)
(0.00122378 -1.81432e-06 7.69153e-08)
(0.00121758 -1.64082e-06 7.1633e-08)