/*--------------------------------*- C++ -*----------------------------------*\
| =========                 |                                                 |
| \\      /  F ield         | OpenFOAM: The Open Source CFD Toolbox           |
|  \\    /   O peration     | Version:  5.0                                   |
|   \\  /    A nd           | Web:      www.OpenFOAM.org                      |
|    \\/     M anipulation  |                                                 |
\*---------------------------------------------------------------------------*/
FoamFile
{
    version     2.0;
    format      ascii;
    class       surfaceScalarField;
    location    "100/porous";
    object      phi;
}
// * * * * * * * * * * * * * * * * * * * * * * * * * * * * * * * * * * * * * //

dimensions      [1 0 -1 0 0 0 0];

internalField   nonuniform List<scalar> 
104700
(
7.63469e-05
2.58378e-06
8.7736e-05
4.58798e-05
1.53402e-06
2.8933e-05
3.34903e-05
1.3241e-06
1.10654e-05
2.82047e-05
1.09934e-06
4.18628e-06
2.50904e-05
9.26105e-07
2.1882e-06
2.29263e-05
7.96636e-07
1.36752e-06
2.12778e-05
6.97814e-07
9.50619e-07
1.99632e-05
6.20208e-07
6.94418e-07
1.88879e-05
5.56786e-07
5.18515e-07
1.79952e-05
5.0254e-07
3.90198e-07
1.72485e-05
4.53473e-07
2.93137e-07
1.66229e-05
4.06375e-07
2.19259e-07
1.60996e-05
3.58981e-07
1.64371e-07
1.56636e-05
3.10222e-07
1.25698e-07
1.53028e-05
2.60333e-07
1.00508e-07
1.50065e-05
2.1066e-07
8.55968e-08
1.47659e-05
1.63214e-07
7.74322e-08
1.45731e-05
1.20103e-07
7.26573e-08
1.44215e-05
8.30292e-08
6.86044e-08
1.43049e-05
5.29577e-08
6.36239e-08
1.42178e-05
3.00422e-08
5.70947e-08
1.41549e-05
1.37244e-08
4.91853e-08
1.41115e-05
2.9458e-09
4.04569e-08
1.40832e-05
-3.501e-09
3.18026e-08
1.40659e-05
-6.72458e-09
2.40111e-08
1.40562e-05
-7.77492e-09
1.74211e-08
1.40517e-05
-7.50697e-09
1.20957e-08
1.40502e-05
-6.54587e-09
7.98178e-09
1.40506e-05
-5.35525e-09
4.99501e-09
1.40518e-05
-4.17022e-09
2.91224e-09
1.40534e-05
-3.11786e-09
1.52628e-09
1.4055e-05
-2.25647e-09
6.6849e-10
1.40564e-05
-1.58301e-09
1.72499e-10
1.40576e-05
-1.07409e-09
-8.85949e-11
1.40585e-05
-6.76862e-10
-2.18467e-10
1.40592e-05
-3.74699e-10
-2.94061e-10
1.40595e-05
-4.91064e-11
-3.20759e-10
1.40599e-05
1.70564e-11
-3.73648e-10
1.40605e-05
9.6203e-10
-1.54683e-09
8.78238e-10
-9.57865e-10
7.78124e-05
1.68799e-06
8.97501e-05
4.84265e-05
1.30118e-06
2.96187e-05
3.67853e-05
1.23868e-06
1.17266e-05
3.20174e-05
1.0831e-06
4.78421e-06
2.9327e-05
9.49927e-07
2.66653e-06
2.7506e-05
8.41215e-07
1.77644e-06
2.61396e-05
7.50158e-07
1.31403e-06
2.50618e-05
6.72414e-07
1.02565e-06
2.419e-05
6.03168e-07
8.2537e-07
2.34768e-05
5.38095e-07
6.77711e-07
2.28923e-05
4.73231e-07
5.64739e-07
2.2416e-05
4.05357e-07
4.77313e-07
2.20318e-05
3.32608e-07
4.10512e-07
2.1726e-05
2.55029e-07
3.61029e-07
2.14859e-05
1.74761e-07
3.25656e-07
2.13003e-05
9.56763e-08
3.00644e-07
2.11592e-05
2.25254e-08
2.81758e-07
2.10544e-05
-4.01392e-08
2.6505e-07
2.09787e-05
-8.88849e-08
2.47615e-07
2.0926e-05
-1.21999e-07
2.27662e-07
2.08912e-05
-1.39749e-07
2.04609e-07
2.087e-05
-1.44036e-07
1.78948e-07
2.08588e-05
-1.37797e-07
1.51949e-07
2.08546e-05
-1.2441e-07
1.2509e-07
2.08552e-05
-1.07089e-07
9.9741e-08
2.08589e-05
-8.84865e-08
7.70588e-08
2.08641e-05
-7.05366e-08
5.77607e-08
2.087e-05
-5.44574e-08
4.20764e-08
2.08757e-05
-4.08503e-08
2.98e-08
2.08808e-05
-2.9838e-08
2.05274e-08
2.08852e-05
-2.12536e-08
1.37496e-08
2.08888e-05
-1.479e-08
8.95315e-09
2.08916e-05
-1.00652e-08
5.66849e-09
2.08937e-05
-6.69768e-09
3.48284e-09
2.08953e-05
-4.32727e-09
2.07406e-09
2.08964e-05
-2.69376e-09
1.19462e-09
2.08971e-05
-1.45671e-09
6.88319e-10
2.08977e-05
-7.03767e-10
2.06026e-10
2.08982e-05
7.41684e-10
-3.23951e-10
9.8679e-10
-2.96136e-10
7.76223e-05
1.22985e-06
8.95025e-05
4.84085e-05
1.23632e-06
2.92787e-05
3.69396e-05
1.20898e-06
1.14986e-05
3.23099e-05
1.07711e-06
4.63568e-06
2.97496e-05
9.48579e-07
2.56161e-06
2.80492e-05
8.3829e-07
1.70337e-06
2.67956e-05
7.43499e-07
1.26029e-06
2.58232e-05
6.61495e-07
9.83244e-07
2.50495e-05
5.88006e-07
7.88885e-07
2.4426e-05
5.18797e-07
6.42837e-07
2.39218e-05
4.50043e-07
5.2741e-07
2.3515e-05
3.78835e-07
4.33249e-07
2.31886e-05
3.03752e-07
3.55266e-07
2.29279e-05
2.25295e-07
2.90485e-07
2.27199e-05
1.45921e-07
2.36799e-07
2.25537e-05
6.95816e-08
1.92355e-07
2.24199e-05
8.24446e-10
1.55433e-07
2.23116e-05
-5.62459e-08
1.24404e-07
2.22237e-05
-9.88672e-08
9.78849e-08
2.21528e-05
-1.26117e-07
7.50461e-08
2.20964e-05
-1.38884e-07
5.5542e-08
2.20525e-05
-1.39477e-07
3.9323e-08
2.20193e-05
-1.30969e-07
2.63533e-08
2.19951e-05
-1.16596e-07
1.6422e-08
2.19781e-05
-9.93033e-08
9.19014e-09
2.19668e-05
-8.14229e-08
4.22478e-09
2.19598e-05
-6.45797e-08
1.0346e-09
2.19559e-05
-4.97347e-08
-7.88885e-10
2.1954e-05
-3.73071e-08
-1.64421e-09
2.19534e-05
-2.73338e-08
-1.89684e-09
2.19535e-05
-1.96073e-08
-1.78755e-09
2.1954e-05
-1.37986e-08
-1.5053e-09
2.19547e-05
-9.5371e-09
-1.18111e-09
2.19553e-05
-6.47111e-09
-8.80901e-10
2.19559e-05
-4.27788e-09
-6.33509e-10
2.19564e-05
-2.73162e-09
-4.46231e-10
2.19568e-05
-1.53645e-09
-2.85704e-10
2.19571e-05
-7.49693e-10
-2.85729e-10
2.19574e-05
4.13156e-10
7.12195e-12
7.54488e-10
1.38367e-10
7.73814e-05
8.69055e-07
8.9646e-05
4.81322e-05
1.03737e-06
2.94482e-05
3.66937e-05
1.04544e-06
1.1602e-05
3.21114e-05
9.56885e-07
4.70258e-06
2.96019e-05
8.56744e-07
2.60136e-06
2.795e-05
7.6422e-07
1.72593e-06
2.67417e-05
6.80823e-07
1.27099e-06
2.58109e-05
6.06174e-07
9.86111e-07
2.50745e-05
5.37716e-07
7.86704e-07
2.44836e-05
4.72389e-07
6.37359e-07
2.40067e-05
4.07251e-07
5.19662e-07
2.36217e-05
3.40047e-07
4.23781e-07
2.33113e-05
2.69736e-07
3.44409e-07
2.30611e-05
1.96854e-07
2.78612e-07
2.2859e-05
1.23542e-07
2.24561e-07
2.26946e-05
5.31648e-08
1.8078e-07
2.256e-05
-1.04034e-08
1.45819e-07
2.24492e-05
-6.3623e-08
1.18176e-07
2.2358e-05
-1.04028e-07
9.63789e-08
2.22834e-05
-1.30637e-07
7.90692e-08
2.22234e-05
-1.44001e-07
6.51105e-08
2.21763e-05
-1.45907e-07
5.36113e-08
2.21402e-05
-1.38908e-07
4.3949e-08
2.21137e-05
-1.25821e-07
3.57261e-08
2.20951e-05
-1.09313e-07
2.86855e-08
2.20826e-05
-9.16203e-08
2.26865e-08
2.20748e-05
-7.44065e-08
1.76378e-08
2.20703e-05
-5.87529e-08
1.34634e-08
2.20682e-05
-4.52366e-08
1.00833e-08
2.20675e-05
-3.40467e-08
7.40848e-09
2.20676e-05
-2.50998e-08
5.33805e-09
2.20682e-05
-1.81543e-08
3.77092e-09
2.20689e-05
-1.28952e-08
2.61143e-09
2.20697e-05
-8.99344e-09
1.77432e-09
2.20704e-05
-6.13006e-09
1.18398e-09
2.20709e-05
-4.06009e-09
7.74073e-10
2.20713e-05
-2.49207e-09
5.35084e-10
2.20718e-05
-1.3992e-09
2.37512e-10
2.2072e-05
-2.74683e-10
4.73053e-10
3.43789e-10
4.69856e-10
7.72585e-05
6.76231e-07
8.9601e-05
4.79941e-05
9.27099e-07
2.93746e-05
3.65741e-05
9.71455e-07
1.14941e-05
3.20124e-05
9.16009e-07
4.60255e-06
2.9521e-05
8.33845e-07
2.51424e-06
2.78839e-05
7.49548e-07
1.65186e-06
2.66876e-05
6.69578e-07
1.20754e-06
2.57669e-05
5.96074e-07
9.30818e-07
2.5039e-05
5.28118e-07
7.37471e-07
2.44553e-05
4.63663e-07
5.9238e-07
2.39848e-05
4.00441e-07
4.77393e-07
2.36053e-05
3.36617e-07
3.82868e-07
2.33001e-05
2.71302e-07
3.03659e-07
2.30551e-05
2.0486e-07
2.37024e-07
2.28583e-05
1.38937e-07
1.81392e-07
2.26997e-05
7.61467e-08
1.3563e-07
2.25711e-05
1.95103e-08
9.86891e-08
2.24662e-05
-2.82113e-08
6.94838e-08
2.23803e-05
-6.50888e-08
4.6912e-08
2.23101e-05
-9.03637e-08
2.98945e-08
2.22532e-05
-1.04493e-07
1.74196e-08
2.22077e-05
-1.08924e-07
8.57767e-09
2.2172e-05
-1.05724e-07
2.52185e-09
2.21446e-05
-9.71856e-08
-1.30902e-09
2.21242e-05
-8.54821e-08
-3.41554e-09
2.21094e-05
-7.24463e-08
-4.36375e-09
2.2099e-05
-5.9463e-08
-4.53084e-09
2.20919e-05
-4.74577e-08
-4.22549e-09
2.20873e-05
-3.69477e-08
-3.68265e-09
2.20844e-05
-2.8138e-08
-3.0511e-09
2.20828e-05
-2.10116e-08
-2.42203e-09
2.20819e-05
-1.54121e-08
-1.85637e-09
2.20815e-05
-1.11139e-08
-1.38069e-09
2.20814e-05
-7.87599e-09
-9.9994e-10
2.20814e-05
-5.45992e-09
-7.04321e-10
2.20815e-05
-3.67787e-09
-4.8597e-10
2.20816e-05
-2.31394e-09
-3.00075e-10
2.20819e-05
-1.32728e-09
-2.9093e-10
2.20818e-05
-4.32939e-10
1.90731e-10
1.37483e-10
4.56153e-10
7.71839e-05
5.19106e-07
8.96399e-05
4.78785e-05
7.76604e-07
2.94559e-05
3.64426e-05
8.35632e-07
1.15717e-05
3.18802e-05
8.03988e-07
4.67447e-06
2.93948e-05
7.41514e-07
2.5777e-06
2.77661e-05
6.71722e-07
1.7065e-06
2.65791e-05
6.02723e-07
1.25395e-06
2.56673e-05
5.37698e-07
9.70129e-07
2.49477e-05
4.76723e-07
7.7098e-07
2.43715e-05
4.18541e-07
6.21296e-07
2.39077e-05
3.61491e-07
5.02801e-07
2.35344e-05
3.04148e-07
4.05739e-07
2.32351e-05
2.45797e-07
3.24874e-07
2.29958e-05
1.86708e-07
2.57382e-07
2.2805e-05
1.28176e-07
2.01605e-07
2.26525e-05
7.22934e-08
1.56308e-07
2.25302e-05
2.15164e-08
1.20283e-07
2.24317e-05
-2.1854e-08
9.22337e-08
2.23519e-05
-5.61203e-08
7.0804e-08
2.22873e-05
-8.04937e-08
5.46693e-08
2.22354e-05
-9.51512e-08
4.25813e-08
2.21941e-05
-1.01121e-07
3.34871e-08
2.21619e-05
-1.00007e-07
2.65489e-08
2.21372e-05
-9.36772e-08
2.11445e-08
2.21189e-05
-8.39897e-08
1.68444e-08
2.21056e-05
-7.25819e-08
1.33592e-08
2.20964e-05
-6.07634e-08
1.05062e-08
2.20903e-05
-4.94717e-08
8.17006e-09
2.20864e-05
-3.92914e-08
6.2676e-09
2.2084e-05
-3.05198e-08
4.73466e-09
2.20827e-05
-2.32356e-08
3.52112e-09
2.20821e-05
-1.73659e-08
2.57467e-09
2.20819e-05
-1.27517e-08
1.85153e-09
2.20819e-05
-9.19831e-09
1.30933e-09
2.2082e-05
-6.49684e-09
9.12516e-10
2.20822e-05
-4.47105e-09
6.24595e-10
2.20823e-05
-2.92591e-09
4.56708e-10
2.20826e-05
-1.7831e-09
2.06223e-10
2.20825e-05
-8.54636e-10
5.14414e-10
-1.4446e-10
6.46971e-10
7.71344e-05
4.18662e-07
8.96327e-05
4.78013e-05
6.65482e-07
2.94443e-05
3.63601e-05
7.38125e-07
1.15387e-05
3.18025e-05
7.27458e-07
4.63413e-06
2.93246e-05
6.82315e-07
2.53711e-06
2.77033e-05
6.24799e-07
1.66826e-06
2.65226e-05
5.64431e-07
1.21902e-06
2.5616e-05
5.05586e-07
9.38646e-07
2.49006e-05
4.4945e-07
7.42672e-07
2.43279e-05
3.95627e-07
5.95666e-07
2.3867e-05
3.43092e-07
4.79259e-07
2.34967e-05
2.90834e-07
3.83668e-07
2.32005e-05
2.38309e-07
3.03672e-07
2.2965e-05
1.85714e-07
2.36497e-07
2.27786e-05
1.34034e-07
1.80571e-07
2.26312e-05
8.48846e-08
1.34781e-07
2.25144e-05
4.01746e-08
9.80739e-08
2.24216e-05
1.70748e-09
6.93302e-08
2.23472e-05
-2.91758e-08
4.73702e-08
2.22876e-05
-5.18352e-08
3.10261e-08
2.22396e-05
-6.63925e-08
1.91962e-08
2.22012e-05
-7.36426e-08
1.0888e-08
2.21708e-05
-7.48532e-08
5.26088e-09
2.21471e-05
-7.1515e-08
1.58124e-09
2.21289e-05
-6.5131e-08
-6.46877e-10
2.21151e-05
-5.70413e-08
-1.81531e-09
2.2105e-05
-4.83308e-08
-2.31112e-09
2.20977e-05
-3.97958e-08
-2.3761e-09
2.20926e-05
-3.19559e-08
-2.19177e-09
2.2089e-05
-2.50961e-08
-1.89349e-09
2.20867e-05
-1.93186e-08
-1.55798e-09
2.20851e-05
-1.46013e-08
-1.23363e-09
2.20842e-05
-1.08452e-08
-9.44369e-10
2.20836e-05
-7.91444e-09
-7.04502e-10
2.20833e-05
-5.65604e-09
-5.11274e-10
2.20831e-05
-3.93725e-09
-3.63478e-10
2.2083e-05
-2.61596e-09
-2.2374e-10
2.20831e-05
-1.61826e-09
-2.45321e-10
2.20829e-05
-8.37063e-10
2.30947e-10
-2.16814e-10
5.43925e-10
7.71072e-05
3.33176e-07
8.96449e-05
4.7748e-05
5.50491e-07
2.94742e-05
3.62922e-05
6.22966e-07
1.1571e-05
3.17287e-05
6.22945e-07
4.66795e-06
2.92498e-05
5.90081e-07
2.57119e-06
2.763e-05
5.43538e-07
1.70102e-06
2.64522e-05
4.92627e-07
1.24963e-06
2.55491e-05
4.41889e-07
9.66781e-07
2.48373e-05
3.92923e-07
7.68356e-07
2.4268e-05
3.45767e-07
6.19104e-07
2.38106e-05
2.99771e-07
5.00752e-07
2.34437e-05
2.54182e-07
4.03568e-07
2.31511e-05
2.08564e-07
3.22349e-07
2.29194e-05
1.63044e-07
2.54322e-07
2.27372e-05
1.18374e-07
1.97893e-07
2.25944e-05
7.58204e-08
1.51897e-07
2.24824e-05
3.69127e-08
1.1521e-07
2.23944e-05
3.13007e-09
8.66036e-08
2.23248e-05
-2.43849e-08
6.47716e-08
2.22696e-05
-4.50174e-08
4.84155e-08
2.22256e-05
-5.87665e-08
3.63325e-08
2.21907e-05
-6.61791e-08
2.74591e-08
2.21632e-05
-6.82222e-08
2.0934e-08
2.21416e-05
-6.60906e-08
1.60902e-08
2.21251e-05
-6.10297e-08
1.24383e-08
2.21126e-05
-5.41967e-08
9.63993e-09
2.21034e-05
-4.65606e-08
7.45985e-09
2.20967e-05
-3.88676e-08
5.74477e-09
2.2092e-05
-3.16343e-08
4.38891e-09
2.20887e-05
-2.51712e-08
3.31805e-09
2.20866e-05
-1.96223e-08
2.47811e-09
2.20851e-05
-1.50099e-08
1.82678e-09
2.20842e-05
-1.12772e-08
1.32794e-09
2.20837e-05
-8.32051e-09
9.51677e-10
2.20834e-05
-6.01518e-09
6.72242e-10
2.20832e-05
-4.24164e-09
4.67379e-10
2.20831e-05
-2.87607e-09
3.56459e-10
2.20832e-05
-1.83459e-09
1.4311e-10
2.20829e-05
-1.03486e-09
4.83426e-10
-3.59626e-10
6.86709e-10
7.70866e-05
2.68865e-07
8.96444e-05
4.77073e-05
4.5573e-07
2.94741e-05
3.62419e-05
5.26269e-07
1.15621e-05
3.16766e-05
5.3502e-07
4.65321e-06
2.91994e-05
5.13419e-07
2.55386e-06
2.7583e-05
4.77425e-07
1.68253e-06
2.6409e-05
4.35686e-07
1.23101e-06
2.55095e-05
3.92742e-07
9.48654e-07
2.48008e-05
3.50543e-07
7.51048e-07
2.42343e-05
3.09561e-07
6.02714e-07
2.37793e-05
2.69539e-07
4.85222e-07
2.34147e-05
2.30016e-07
3.88744e-07
2.31246e-05
1.90701e-07
3.0802e-07
2.28956e-05
1.51697e-07
2.40266e-07
2.27165e-05
1.13581e-07
1.83904e-07
2.25772e-05
7.73237e-08
1.37817e-07
2.24691e-05
4.41099e-08
1.00949e-07
2.23849e-05
1.50949e-08
7.21572e-08
2.23192e-05
-8.81941e-09
5.02251e-08
2.22673e-05
-2.71318e-08
3.39272e-08
2.22263e-05
-3.98195e-08
2.2122e-08
2.21936e-05
-4.72912e-08
1.37885e-08
2.21676e-05
-5.02907e-08
8.06537e-09
2.2147e-05
-4.97583e-08
4.26044e-09
2.21308e-05
-4.66788e-08
1.822e-09
2.21183e-05
-4.19856e-08
3.24468e-10
2.21087e-05
-3.6469e-08
-5.02496e-10
2.21015e-05
-3.07467e-08
-8.84426e-10
2.20961e-05
-2.52571e-08
-1.00596e-09
2.20922e-05
-2.02744e-08
-9.71312e-10
2.20893e-05
-1.59408e-08
-8.56991e-10
2.20873e-05
-1.22977e-08
-7.14596e-10
2.20859e-05
-9.31603e-09
-5.705e-10
2.2085e-05
-6.92957e-09
-4.40606e-10
2.20844e-05
-5.0501e-09
-3.28822e-10
2.20839e-05
-3.58895e-09
-2.39815e-10
2.20837e-05
-2.4559e-09
-1.41678e-10
2.20836e-05
-1.57975e-09
-1.93817e-10
2.20832e-05
-9.11772e-10
2.65902e-10
-3.4276e-10
5.88172e-10
7.7075e-05
2.11801e-07
8.96488e-05
4.76803e-05
3.64886e-07
2.94855e-05
3.62047e-05
4.27014e-07
1.15749e-05
3.16341e-05
4.38312e-07
4.66725e-06
2.91547e-05
4.23539e-07
2.56927e-06
2.75381e-05
3.95502e-07
1.6986e-06
2.63649e-05
3.61718e-07
1.24717e-06
2.54668e-05
3.26298e-07
9.6452e-07
2.47598e-05
2.91164e-07
7.6637e-07
2.41951e-05
2.56933e-07
6.17365e-07
2.37419e-05
2.23529e-07
4.99167e-07
2.33793e-05
1.90642e-07
4.0201e-07
2.30912e-05
1.58044e-07
3.20684e-07
2.28647e-05
1.25795e-07
2.52428e-07
2.26883e-05
9.43132e-08
1.95679e-07
2.2552e-05
6.43357e-08
1.49315e-07
2.24471e-05
3.67815e-08
1.12258e-07
2.23663e-05
1.25692e-08
8.33247e-08
2.23038e-05
-7.56104e-09
6.12452e-08
2.2255e-05
-2.31705e-08
4.47424e-08
2.22168e-05
-3.41861e-08
3.2616e-08
2.21866e-05
-4.08835e-08
2.38227e-08
2.21626e-05
-4.38144e-08
1.74849e-08
2.21436e-05
-4.37094e-08
1.29194e-08
2.21287e-05
-4.13592e-08
9.61193e-09
2.21171e-05
-3.75282e-08
7.1909e-09
2.21081e-05
-3.28866e-08
5.40038e-09
2.21012e-05
-2.79701e-08
4.05674e-09
2.20961e-05
-2.31736e-08
3.03934e-09
2.20923e-05
-1.87561e-08
2.2665e-09
2.20896e-05
-1.48639e-08
1.67734e-09
2.20876e-05
-1.15523e-08
1.22906e-09
2.20862e-05
-8.81335e-09
8.92477e-10
2.20852e-05
-6.60022e-09
6.39224e-10
2.20846e-05
-4.84385e-09
4.53986e-10
2.20841e-05
-3.46931e-09
3.15947e-10
2.20838e-05
-2.40087e-09
2.53898e-10
2.20837e-05
-1.57095e-09
7.44231e-11
2.20833e-05
-9.3652e-10
4.41116e-10
-3.7911e-10
6.91089e-10
7.70658e-05
1.63477e-07
8.96491e-05
4.76591e-05
2.84582e-07
2.9487e-05
3.61758e-05
3.37229e-07
1.15731e-05
3.16019e-05
3.49714e-07
4.66246e-06
2.91219e-05
3.4091e-07
2.56265e-06
2.75062e-05
3.20552e-07
1.69067e-06
2.63348e-05
2.94768e-07
1.23839e-06
2.54387e-05
2.67054e-07
9.55289e-07
2.47337e-05
2.39167e-07
7.56983e-07
2.41709e-05
2.11791e-07
6.0801e-07
2.37194e-05
1.85008e-07
4.89939e-07
2.33585e-05
1.58656e-07
3.92933e-07
2.30722e-05
1.32594e-07
3.1173e-07
2.28476e-05
1.06868e-07
2.43544e-07
2.26733e-05
8.17878e-08
1.86807e-07
2.25394e-05
5.7897e-08
1.40411e-07
2.2437e-05
3.58823e-08
1.03303e-07
2.23587e-05
1.64372e-08
7.43439e-08
2.22988e-05
1.29043e-10
5.23005e-08
2.22524e-05
-1.26992e-08
3.59264e-08
2.22161e-05
-2.19736e-08
2.40525e-08
2.21875e-05
-2.78883e-08
1.56425e-08
2.21647e-05
-3.08478e-08
9.82289e-09
2.21465e-05
-3.13966e-08
5.89184e-09
2.21319e-05
-3.01345e-08
3.30923e-09
2.21204e-05
-2.76436e-08
1.66437e-09
2.21113e-05
-2.44418e-08
6.57916e-10
2.21042e-05
-2.09483e-08
7.23084e-11
2.20987e-05
-1.74762e-08
-2.29303e-10
2.20945e-05
-1.42361e-08
-3.53243e-10
2.20914e-05
-1.135e-08
-3.7975e-10
2.20891e-05
-8.87184e-09
-3.53712e-10
2.20874e-05
-6.80602e-09
-3.01619e-10
2.20861e-05
-5.1247e-09
-2.44933e-10
2.20853e-05
-3.7803e-09
-1.89019e-10
2.20847e-05
-2.72078e-09
-1.41952e-10
2.20842e-05
-1.89252e-09
-7.48532e-11
2.2084e-05
-1.24288e-09
-1.50387e-10
2.20836e-05
-7.46405e-10
2.95532e-10
-3.08062e-10
6.20779e-10
7.70605e-05
1.18827e-07
8.96508e-05
4.76453e-05
2.08117e-07
2.94917e-05
3.61556e-05
2.48594e-07
1.15783e-05
3.15781e-05
2.5915e-07
4.6681e-06
2.90962e-05
2.53646e-07
2.56915e-06
2.74799e-05
2.39047e-07
1.69784e-06
2.63086e-05
2.20029e-07
1.24603e-06
2.54131e-05
1.99324e-07
9.63204e-07
2.47089e-05
1.78368e-07
7.65016e-07
2.41469e-05
1.57765e-07
6.16031e-07
2.36964e-05
1.37635e-07
4.97857e-07
2.33365e-05
1.17882e-07
4.00686e-07
2.30514e-05
9.84015e-08
3.19283e-07
2.28282e-05
7.92101e-08
2.50884e-07
2.26555e-05
6.05108e-08
1.93937e-07
2.25234e-05
4.26828e-08
1.47347e-07
2.2423e-05
2.6217e-08
1.1006e-07
2.23469e-05
1.16203e-08
8.09274e-08
2.2289e-05
-6.82126e-10
5.87011e-08
2.22446e-05
-1.04216e-08
4.21177e-08
2.22102e-05
-1.75216e-08
2.99864e-08
2.21831e-05
-2.21021e-08
2.12594e-08
2.21616e-05
-2.44435e-08
1.50548e-08
2.21445e-05
-2.49346e-08
1.06797e-08
2.21308e-05
-2.4016e-08
7.6042e-09
2.21198e-05
-2.21225e-08
5.43837e-09
2.21111e-05
-1.96485e-08
3.90813e-09
2.21043e-05
-1.69184e-08
2.81814e-09
2.20989e-05
-1.418e-08
2.03498e-09
2.20948e-05
-1.16029e-08
1.46982e-09
2.20917e-05
-9.29038e-09
1.05913e-09
2.20894e-05
-7.29104e-09
7.5888e-10
2.20876e-05
-5.61452e-09
5.41461e-10
2.20864e-05
-4.24236e-09
3.83414e-10
2.20855e-05
-3.14134e-09
2.69669e-10
2.20848e-05
-2.27052e-09
1.85678e-10
2.20844e-05
-1.58865e-09
1.62662e-10
2.20842e-05
-1.05308e-09
1.17395e-11
2.20837e-05
-6.42356e-10
4.01738e-10
-2.70848e-10
6.87669e-10
7.70565e-05
7.78508e-08
8.96512e-05
4.7635e-05
1.36775e-07
2.94928e-05
3.61408e-05
1.64572e-07
1.15783e-05
3.15607e-05
1.72441e-07
4.66674e-06
2.90778e-05
1.69634e-07
2.56691e-06
2.74615e-05
1.6054e-07
1.69483e-06
2.62909e-05
1.48294e-07
1.2424e-06
2.53963e-05
1.34754e-07
9.59137e-07
2.46931e-05
1.20933e-07
7.60656e-07
2.41321e-05
1.07284e-07
6.115e-07
2.36825e-05
9.39246e-08
4.93233e-07
2.33236e-05
8.08138e-08
3.96013e-07
2.30395e-05
6.78892e-08
3.14578e-07
2.28174e-05
5.51582e-08
2.46143e-07
2.2646e-05
4.27468e-08
1.89153e-07
2.25153e-05
3.0895e-08
1.42512e-07
2.24164e-05
1.99185e-08
1.05185e-07
2.23419e-05
1.01479e-08
7.6035e-08
2.22855e-05
1.86195e-09
5.3838e-08
2.22425e-05
-4.75922e-09
3.73412e-08
2.22093e-05
-9.6581e-09
2.53648e-08
2.21832e-05
-1.2906e-08
1.68622e-08
2.21625e-05
-1.46787e-08
1.09502e-08
2.21458e-05
-1.52243e-08
6.92441e-09
2.21324e-05
-1.48265e-08
4.23884e-09
2.21216e-05
-1.37669e-08
2.48759e-09
2.21129e-05
-1.23027e-08
1.37365e-09
2.21059e-05
-1.06462e-08
6.88346e-10
2.21004e-05
-8.96026e-09
2.83303e-10
2.20961e-05
-7.35836e-09
5.50554e-11
2.20928e-05
-5.91126e-09
-5.99173e-11
2.20902e-05
-4.65353e-09
-1.05016e-10
2.20883e-05
-3.59367e-09
-1.15165e-10
2.20869e-05
-2.72293e-09
-1.0597e-10
2.20859e-05
-2.02093e-09
-8.94703e-11
2.20851e-05
-1.46374e-09
-7.08042e-11
2.20846e-05
-1.02597e-09
-2.42524e-11
2.20844e-05
-6.79949e-10
-1.17273e-10
2.20838e-05
-4.15126e-10
3.19716e-10
-1.73344e-10
6.4972e-10
7.70543e-05
3.84332e-08
8.96517e-05
4.7629e-05
6.75418e-08
2.94946e-05
3.61318e-05
8.16103e-08
1.15802e-05
3.15499e-05
8.55941e-08
4.66876e-06
2.90659e-05
8.42854e-08
2.56928e-06
2.74492e-05
7.97657e-08
1.69754e-06
2.62785e-05
7.36255e-08
1.2454e-06
2.5384e-05
6.68134e-08
9.62372e-07
2.4681e-05
5.98547e-08
7.64069e-07
2.41203e-05
5.29921e-08
6.15031e-07
2.36711e-05
4.62928e-08
4.96828e-07
2.33126e-05
3.97378e-08
3.99621e-07
2.3029e-05
3.32918e-08
3.18154e-07
2.28076e-05
2.69524e-08
2.49652e-07
2.2637e-05
2.07745e-08
1.92568e-07
2.25072e-05
1.48733e-08
1.45816e-07
2.24093e-05
9.40252e-09
1.08365e-07
2.23359e-05
4.52606e-09
7.90903e-08
2.22806e-05
3.85629e-10
5.67608e-08
2.22386e-05
-2.9263e-09
4.01238e-08
2.22063e-05
-5.37702e-09
2.79975e-08
2.21811e-05
-6.99785e-09
1.93249e-08
2.21611e-05
-7.87311e-09
1.32248e-08
2.2145e-05
-8.12509e-09
8.99234e-09
2.2132e-05
-7.89563e-09
6.08715e-09
2.21214e-05
-7.32636e-09
4.10929e-09
2.21129e-05
-6.54797e-09
2.76904e-09
2.2106e-05
-5.66961e-09
1.86511e-09
2.21006e-05
-4.77551e-09
1.25698e-09
2.20963e-05
-3.92548e-09
8.45967e-10
2.2093e-05
-3.15571e-09
5.69411e-10
2.20904e-05
-2.48576e-09
3.83635e-10
2.20885e-05
-1.92045e-09
2.57582e-10
2.20871e-05
-1.45544e-09
1.72889e-10
2.2086e-05
-1.08049e-09
1.15666e-10
2.20852e-05
-7.82667e-10
7.55547e-11
2.20847e-05
-5.49091e-10
8.15132e-11
2.20844e-05
-3.65128e-10
-4.36843e-11
2.20839e-05
-2.24229e-10
3.67038e-10
-9.33077e-11
6.86062e-10
7.70533e-05
2.27395e-12
8.96518e-05
4.76259e-05
3.99312e-12
2.9495e-05
3.61272e-05
5.33539e-12
1.15803e-05
3.15444e-05
6.64002e-12
4.6684e-06
2.906e-05
8.23172e-12
2.56863e-06
2.74432e-05
9.90503e-12
1.69662e-06
2.62725e-05
1.13727e-11
1.24425e-06
2.53783e-05
1.18765e-11
9.6104e-07
2.46755e-05
1.11e-11
7.62613e-07
2.4115e-05
8.48303e-12
6.13501e-07
2.36661e-05
3.17765e-12
4.95259e-07
2.33078e-05
-4.30588e-12
3.98034e-07
2.30245e-05
-1.27786e-11
3.16557e-07
2.28034e-05
-2.07166e-11
2.48043e-07
2.26333e-05
-2.61535e-11
1.90943e-07
2.2504e-05
-2.77147e-11
1.4417e-07
2.24068e-05
-2.4649e-11
1.06703e-07
2.23339e-05
-1.74131e-11
7.74196e-08
2.22792e-05
-6.36788e-12
5.50982e-08
2.22377e-05
6.72327e-12
3.84947e-08
2.22059e-05
2.04358e-11
2.64231e-08
2.21811e-05
3.33223e-11
1.78324e-08
2.21613e-05
4.40406e-11
1.18349e-08
2.21454e-05
5.19762e-11
7.72537e-09
2.21325e-05
5.68948e-11
4.95472e-09
2.2122e-05
5.8955e-11
3.11648e-09
2.21135e-05
5.85675e-11
1.91968e-09
2.21066e-05
5.59607e-11
1.15238e-09
2.21011e-05
5.23799e-11
6.69152e-10
2.20967e-05
4.78591e-11
3.73144e-10
2.20933e-05
4.26803e-11
1.96401e-10
2.20907e-05
3.73996e-11
9.29596e-11
2.20887e-05
3.24001e-11
3.64157e-11
2.20872e-05
2.74925e-11
7.32413e-12
2.20861e-05
2.28513e-11
-5.98272e-12
2.20854e-05
1.88217e-11
-1.07053e-11
2.20848e-05
1.49818e-11
1.89835e-11
2.20845e-05
1.14691e-11
-8.5872e-11
2.20839e-05
8.79618e-12
3.40174e-10
4.55799e-12
6.77778e-10
7.70533e-05
-3.84287e-08
8.96518e-05
4.76259e-05
-6.75335e-08
2.9495e-05
3.61272e-05
-8.15996e-08
1.15803e-05
3.15444e-05
-8.5581e-08
4.6684e-06
2.906e-05
-8.42693e-08
2.56863e-06
2.74432e-05
-7.97465e-08
1.69662e-06
2.62725e-05
-7.36038e-08
1.24425e-06
2.53783e-05
-6.67901e-08
9.6104e-07
2.46755e-05
-5.98326e-08
7.62613e-07
2.4115e-05
-5.29757e-08
6.135e-07
2.36661e-05
-4.62869e-08
4.95257e-07
2.33078e-05
-3.97465e-08
3.98032e-07
2.30245e-05
-3.3317e-08
3.16554e-07
2.28035e-05
-2.69923e-08
2.48041e-07
2.26333e-05
-2.08248e-08
1.90939e-07
2.2504e-05
-1.4926e-08
1.44166e-07
2.24068e-05
-9.44864e-09
1.067e-07
2.23339e-05
-4.55741e-09
7.74162e-08
2.22792e-05
-3.94931e-10
5.50978e-08
2.22378e-05
2.94284e-09
3.84938e-08
2.22059e-05
5.42015e-09
2.64238e-08
2.21811e-05
7.06564e-09
1.78328e-08
2.21613e-05
7.9615e-09
1.18369e-08
2.21454e-05
8.22899e-09
7.72667e-09
2.21325e-05
8.00905e-09
4.95645e-09
2.2122e-05
7.44349e-09
3.11825e-09
2.21135e-05
6.66436e-09
1.92152e-09
2.21066e-05
5.7813e-09
1.15325e-09
2.21011e-05
4.87934e-09
6.71176e-10
2.20967e-05
4.01984e-09
3.74247e-10
2.20933e-05
3.24011e-09
1.97034e-10
2.20907e-05
2.55969e-09
9.38965e-11
2.20887e-05
1.98437e-09
3.65991e-11
2.20872e-05
1.50982e-09
7.35481e-12
2.20861e-05
1.12632e-09
-5.58153e-12
2.20854e-05
8.20355e-10
-1.17986e-11
2.20848e-05
5.79528e-10
1.85249e-11
2.20845e-05
3.8815e-10
-8.7206e-11
2.20839e-05
2.41408e-10
3.40083e-10
1.02664e-10
6.76289e-10
7.70543e-05
-7.78465e-08
8.96517e-05
4.7629e-05
-1.36767e-07
2.94946e-05
3.61318e-05
-1.64561e-07
1.15802e-05
3.15499e-05
-1.72428e-07
4.66876e-06
2.90659e-05
-1.69618e-07
2.56928e-06
2.74492e-05
-1.60521e-07
1.69754e-06
2.62785e-05
-1.48272e-07
1.2454e-06
2.5384e-05
-1.34732e-07
9.62372e-07
2.4681e-05
-1.20912e-07
7.64067e-07
2.41203e-05
-1.07268e-07
6.15029e-07
2.36711e-05
-9.3919e-08
4.96824e-07
2.33126e-05
-8.08222e-08
3.99616e-07
2.3029e-05
-6.79129e-08
3.18146e-07
2.28076e-05
-5.51959e-08
2.49644e-07
2.2637e-05
-4.27939e-08
1.9256e-07
2.25072e-05
-3.09437e-08
1.45809e-07
2.24094e-05
-1.99608e-08
1.08361e-07
2.23359e-05
-1.01753e-08
7.90889e-08
2.22806e-05
-1.86839e-09
5.67614e-08
2.22386e-05
4.77728e-09
4.01286e-08
2.22063e-05
9.70172e-09
2.80026e-08
2.21811e-05
1.29729e-08
1.93315e-08
2.21611e-05
1.47652e-08
1.32316e-08
2.2145e-05
1.53251e-08
8.99998e-09
2.2132e-05
1.49362e-08
6.09517e-09
2.21214e-05
1.38801e-08
4.11618e-09
2.21129e-05
1.24147e-08
2.77577e-09
2.2106e-05
1.07534e-08
1.87084e-09
2.21006e-05
9.06011e-09
1.25966e-09
2.20963e-05
7.44953e-09
8.49917e-10
2.2093e-05
5.99274e-09
5.72078e-10
2.20904e-05
4.72513e-09
3.8564e-10
2.20885e-05
3.65585e-09
2.58778e-10
2.20871e-05
2.77581e-09
1.73917e-10
2.2086e-05
2.06532e-09
1.1591e-10
2.20852e-05
1.50014e-09
7.59103e-11
2.20847e-05
1.05532e-09
8.27463e-11
2.20844e-05
7.02379e-10
-4.25408e-11
2.20839e-05
4.32193e-10
3.67823e-10
1.82438e-10
6.85241e-10
7.70565e-05
-1.18823e-07
8.96512e-05
4.7635e-05
-2.08109e-07
2.94928e-05
3.61408e-05
-2.48583e-07
1.15783e-05
3.15607e-05
-2.59137e-07
4.66675e-06
2.90778e-05
-2.53631e-07
2.56691e-06
2.74615e-05
-2.39029e-07
1.69483e-06
2.62909e-05
-2.20009e-07
1.2424e-06
2.53963e-05
-1.99303e-07
9.59136e-07
2.46931e-05
-1.78348e-07
7.60654e-07
2.41321e-05
-1.5775e-07
6.11496e-07
2.36826e-05
-1.37629e-07
4.93227e-07
2.33236e-05
-1.1789e-07
3.96005e-07
2.30396e-05
-9.84234e-08
3.14567e-07
2.28175e-05
-7.92447e-08
2.46131e-07
2.26461e-05
-6.0553e-08
1.89141e-07
2.25154e-05
-4.27262e-08
1.42503e-07
2.24165e-05
-2.62533e-08
1.05178e-07
2.23419e-05
-1.16421e-08
7.60331e-08
2.22855e-05
6.80608e-10
5.38384e-08
2.22425e-05
1.04435e-08
3.73453e-08
2.22093e-05
1.75672e-08
2.53723e-08
2.21832e-05
2.21696e-08
1.68719e-08
2.21625e-05
2.45289e-08
1.0961e-08
2.21459e-05
2.5033e-08
6.93314e-09
2.21324e-05
2.4122e-08
4.24775e-09
2.21216e-05
2.22315e-08
2.49644e-09
2.21128e-05
1.97559e-08
1.38262e-09
2.21059e-05
1.70211e-08
6.95369e-10
2.21004e-05
1.42751e-08
2.89475e-10
2.20961e-05
1.16897e-08
5.94424e-11
2.20927e-05
9.36774e-09
-5.60788e-11
2.20902e-05
7.35943e-09
-1.03818e-10
2.20883e-05
5.67372e-09
-1.13881e-10
2.20869e-05
4.29299e-09
-1.04747e-10
2.20859e-05
3.1838e-09
-8.81882e-11
2.20851e-05
2.30533e-09
-6.94757e-11
2.20846e-05
1.61679e-09
-2.44081e-11
2.20844e-05
1.07468e-09
-1.16672e-10
2.20838e-05
6.58737e-10
3.20914e-10
2.79898e-10
6.47854e-10
7.70605e-05
-1.63473e-07
8.96508e-05
4.76453e-05
-2.84574e-07
2.94917e-05
3.61556e-05
-3.3722e-07
1.15783e-05
3.15781e-05
-3.49702e-07
4.6681e-06
2.90962e-05
-3.40896e-07
2.56915e-06
2.74799e-05
-3.20535e-07
1.69784e-06
2.63086e-05
-2.94749e-07
1.24602e-06
2.54131e-05
-2.67033e-07
9.63202e-07
2.47089e-05
-2.39147e-07
7.65012e-07
2.41469e-05
-2.11777e-07
6.16026e-07
2.36964e-05
-1.85002e-07
4.97847e-07
2.33365e-05
-1.58662e-07
4.00673e-07
2.30514e-05
-1.32613e-07
3.19268e-07
2.28282e-05
-1.06899e-07
2.50869e-07
2.26556e-05
-8.18246e-08
1.93924e-07
2.25235e-05
-5.79337e-08
1.47336e-07
2.24231e-05
-3.59117e-08
1.10053e-07
2.23469e-05
-1.64525e-08
8.09251e-08
2.2289e-05
-1.2603e-10
5.87043e-08
2.22446e-05
1.27238e-08
4.21257e-08
2.22102e-05
2.20197e-08
2.99974e-08
2.21831e-05
2.79537e-08
2.12735e-08
2.21617e-05
3.09291e-08
1.50712e-08
2.21445e-05
3.14894e-08
1.06949e-08
2.21308e-05
3.02338e-08
7.6182e-09
2.21198e-05
2.77449e-08
5.45219e-09
2.21111e-05
2.45413e-08
3.91959e-09
2.21042e-05
2.10431e-08
2.82824e-09
2.20989e-05
1.75644e-08
2.04285e-09
2.20948e-05
1.43162e-08
1.47564e-09
2.20917e-05
1.14218e-08
1.0643e-09
2.20893e-05
8.93514e-09
7.64003e-10
2.20876e-05
6.86104e-09
5.44696e-10
2.20864e-05
5.17148e-09
3.84296e-10
2.20854e-05
3.82007e-09
2.71624e-10
2.20848e-05
2.75367e-09
1.86515e-10
2.20844e-05
1.91914e-09
1.62751e-10
2.20842e-05
1.26326e-09
1.21783e-11
2.20837e-05
7.62085e-10
4.01146e-10
3.1659e-10
6.84443e-10
7.70658e-05
-2.11797e-07
8.96491e-05
4.76591e-05
-3.6488e-07
2.9487e-05
3.61758e-05
-4.27005e-07
1.15731e-05
3.16019e-05
-4.38302e-07
4.66246e-06
2.91219e-05
-4.23526e-07
2.56265e-06
2.75062e-05
-3.95487e-07
1.69067e-06
2.63348e-05
-3.617e-07
1.23839e-06
2.54387e-05
-3.26279e-07
9.55287e-07
2.47337e-05
-2.91147e-07
7.56978e-07
2.41709e-05
-2.56919e-07
6.08003e-07
2.37195e-05
-2.23523e-07
4.89929e-07
2.33585e-05
-1.90646e-07
3.92918e-07
2.30723e-05
-1.5806e-07
3.11712e-07
2.28477e-05
-1.2582e-07
2.43524e-07
2.26734e-05
-9.43424e-08
1.86789e-07
2.25394e-05
-6.43639e-08
1.40396e-07
2.2437e-05
-3.68024e-08
1.03296e-07
2.23588e-05
-1.25767e-08
7.43401e-08
2.22988e-05
7.57091e-09
5.23031e-08
2.22524e-05
2.31996e-08
3.59354e-08
2.22161e-05
3.42342e-08
2.4065e-08
2.21875e-05
4.09486e-08
1.56583e-08
2.21647e-05
4.38931e-08
9.83924e-09
2.21465e-05
4.37973e-08
5.90905e-09
2.21319e-05
4.14522e-08
3.32557e-09
2.21204e-05
3.76222e-08
1.67852e-09
2.21112e-05
3.29784e-08
6.70886e-10
2.21041e-05
2.80573e-08
8.35954e-11
2.20987e-05
2.32545e-08
-2.20636e-10
2.20945e-05
1.88298e-08
-3.46738e-10
2.20914e-05
1.49297e-08
-3.7559e-10
2.2089e-05
1.16104e-08
-3.49053e-10
2.20873e-05
8.86384e-09
-2.98308e-10
2.20861e-05
6.64377e-09
-2.42924e-10
2.20852e-05
4.88061e-09
-1.88531e-10
2.20846e-05
3.49994e-09
-1.42014e-10
2.20842e-05
2.42557e-09
-7.43317e-11
2.2084e-05
1.58978e-09
-1.50501e-10
2.20836e-05
9.50891e-10
2.96835e-10
3.87392e-10
6.15649e-10
7.7075e-05
-2.68861e-07
8.96488e-05
4.76803e-05
-4.55723e-07
2.94855e-05
3.62047e-05
-5.26261e-07
1.15749e-05
3.16341e-05
-5.3501e-07
4.66725e-06
2.91547e-05
-5.13407e-07
2.56926e-06
2.75381e-05
-4.77411e-07
1.6986e-06
2.63649e-05
-4.35669e-07
1.24717e-06
2.54668e-05
-3.92725e-07
9.64516e-07
2.47598e-05
-3.50526e-07