/*--------------------------------*- C++ -*----------------------------------*\
| =========                 |                                                 |
| \\      /  F ield         | OpenFOAM: The Open Source CFD Toolbox           |
|  \\    /   O peration     | Version:  5.0                                   |
|   \\  /    A nd           | Web:      www.OpenFOAM.org                      |
|    \\/     M anipulation  |                                                 |
\*---------------------------------------------------------------------------*/
FoamFile
{
    version     2.0;
    format      ascii;
    class       volScalarField;
    location    "100/porous";
    object      T;
}
// * * * * * * * * * * * * * * * * * * * * * * * * * * * * * * * * * * * * * //

dimensions      [0 0 0 1 0 0 0];

internalField   nonuniform List<scalar> 
36000
(
400
400
400
400
399.999
399.573
399.191
398.836
398.5
398.177
397.863
397.555
397.247
396.932
396.597
396.225
395.791
395.265
394.613
393.796
392.776
391.521
390.004
388.212
386.145
383.821
381.269
378.535
375.677
372.756
369.837
366.986
364.259
361.703
359.357
357.603
355.992
354.569
353.35
352.339
400
400
400
400
399.999
399.623
399.287
398.977
398.685
398.408
398.141
397.882
397.626
397.367
397.098
396.805
396.47
396.073
395.585
394.975
394.208
393.25
392.07
390.643
388.955
387.003
384.799
382.367
379.748
376.989
374.148
371.287
368.466
365.742
363.163
361.05
359.078
357.291
355.713
354.357
400
400
400
400
399.999
399.63
399.301
399.001
398.72
398.454
398.201
397.956
397.715
397.473
397.223
396.951
396.643
396.276
395.825
395.257
394.538
393.635
392.514
391.149
389.523
387.632
385.483
383.098
380.513
377.776
374.943
372.075
369.234
366.477
363.855
361.682
359.648
357.797
356.155
354.738
400
400
400
400
399.999
399.629
399.3
399
398.72
398.456
398.205
397.962
397.724
397.484
397.236
396.966
396.66
396.295
395.846
395.28
394.564
393.664
392.546
391.184
389.562
387.674
385.528
383.147
380.565
377.831
375
372.133
369.292
366.534
363.911
361.734
359.695
357.84
356.193
354.771
400
400
400
400
399.999
399.628
399.299
398.999
398.719
398.455
398.203
397.961
397.723
397.484
397.236
396.967
396.662
396.299
395.852
395.289
394.577
393.679
392.565
391.207
389.587
387.7
385.555
383.173
380.59
377.853
375.02
372.15
369.307
366.547
363.921
361.742
359.702
357.845
356.197
354.775
400
400
400
400
399.999
399.627
399.297
398.996
398.715
398.45
398.198
397.955
397.717
397.477
397.228
396.958
396.653
396.289
395.841
395.278
394.564
393.666
392.55
391.191
389.571
387.683
385.538
383.156
380.574
377.839
375.006
372.138
369.296
366.537
363.914
361.736
359.696
357.841
356.194
354.772
400
400
400
400
399.999
399.626
399.296
398.994
398.713
398.448
398.196
397.952
397.713
397.473
397.224
396.955
396.65
396.288
395.841
395.279
394.567
393.671
392.558
391.201
389.583
387.697
385.552
383.17
380.588
377.851
375.018
372.148
369.305
366.545
363.92
361.741
359.7
357.844
356.196
354.774
400
400
400
400
399.999
399.626
399.295
398.992
398.71
398.445
398.192
397.948
397.708
397.468
397.219
396.95
396.644
396.281
395.834
395.272
394.561
393.665
392.552
391.196
389.578
387.693
385.548
383.167
380.585
377.85
375.017
372.148
369.305
366.545
363.921
361.742
359.701
357.845
356.197
354.775
400
400
400
400
399.999
399.625
399.294
398.991
398.709
398.443
398.189
397.945
397.706
397.465
397.217
396.948
396.643
396.281
395.835
395.274
394.564
393.671
392.56
391.206
389.59
387.706
385.563
383.182
380.601
377.865
375.031
372.161
369.317
366.556
363.93
361.75
359.708
357.851
356.201
354.778
400
400
400
400
399.999
399.625
399.293
398.99
398.707
398.441
398.187
397.942
397.702
397.462
397.213
396.945
396.64
396.278
395.832
395.272
394.563
393.67
392.561
391.208
389.593
387.711
385.569
383.189
380.608
377.873
375.039
372.169
369.324
366.563
363.937
361.756
359.714
357.855
356.206
354.782
400
400
400
400
399.999
399.625
399.293
398.989
398.706
398.439
398.185
397.94
397.701
397.46
397.212
396.944
396.64
396.278
395.834
395.275
394.567
393.676
392.569
391.218
389.606
387.726
385.585
383.206
380.625
377.89
375.056
372.185
369.339
366.576
363.948
361.766
359.722
357.863
356.212
354.786
400
400
400
400
399.999
399.624
399.292
398.988
398.705
398.438
398.184
397.939
397.699
397.458
397.21
396.942
396.639
396.278
395.834
395.276
394.57
393.68
392.575
391.226
389.615
387.737
385.597
383.22
380.639
377.904
375.07
372.198
369.352
366.588
363.959
361.776
359.731
357.87
356.218
354.792
400
400
400
400
399.999
399.624
399.292
398.988
398.704
398.437
398.183
397.938
397.698
397.458
397.21
396.942
396.639
396.279
395.837
395.281
394.577
393.69
392.586
391.239
389.631
387.754
385.616
383.239
380.659
377.924
375.089
372.217
369.369
366.604
363.973
361.788
359.741
357.879
356.225
354.798
400
400
400
400
399.999
399.624
399.292
398.988
398.704
398.437
398.182
397.937
397.697
397.457
397.209
396.942
396.64
396.281
395.84
395.286
394.584
393.698
392.596
391.251
389.645
387.77
385.633
383.258
380.678
377.943
375.108
372.235
369.386
366.619
363.987
361.8
359.752
357.888
356.233
354.804
400
400
400
400
399.999
399.624
399.292
398.987
398.704
398.436
398.182
397.937
397.697
397.457
397.21
396.943
396.641
396.283
395.844
395.291
394.59
393.707
392.607
391.264
389.659
387.786
385.651
383.276
380.697
377.962
375.126
372.252
369.402
366.634
364
361.812
359.762
357.897
356.24
354.81
400
400
400
400
399.999
399.624
399.292
398.988
398.704
398.436
398.182
397.937
397.697
397.457
397.21
396.943
396.641
396.283
395.843
395.291
394.59
393.706
392.606
391.263
389.658
387.785
385.649
383.274
380.695
377.96
375.124
372.25
369.4
366.632
363.999
361.811
359.761
357.896
356.239
354.809
400
400
400
400
399.999
399.624
399.292
398.988
398.704
398.437
398.182
397.937
397.697
397.457
397.209
396.942
396.64
396.281
395.839
395.285
394.582
393.697
392.594
391.249
389.642
387.767
385.63
383.254
380.675
377.939
375.104
372.231
369.382
366.616
363.984
361.797
359.749
357.886
356.231
354.803
400
400
400
400
399.999
399.624
399.292
398.988
398.705
398.437
398.183
397.938
397.698
397.458
397.21
396.942
396.639
396.279
395.836
395.28
394.576
393.687
392.583
391.236
389.627
387.749
385.611
383.234
380.654
377.918
375.084
372.211
369.363
366.599
363.968
361.784
359.737
357.876
356.222
354.795
400
400
400
400
399.999
399.625
399.293
398.989
398.705
398.438
398.184
397.939
397.699
397.458
397.21
396.942
396.638
396.277
395.832
395.275
394.568
393.677
392.571
391.221
389.61
387.731
385.591
383.213
380.632
377.896
375.062
372.191
369.345
366.581
363.953
361.77
359.725
357.865
356.214
354.788
400
400
400
400
399.999
399.625
399.293
398.989
398.706
398.44
398.186
397.941
397.701
397.46
397.212
396.943
396.639
396.277
395.832
395.273
394.565
393.673
392.564
391.213
389.6
387.718
385.577
383.198
380.616
377.88
375.046
372.175
369.33
366.568
363.94
361.759
359.716
357.857
356.207
354.782
400
400
400
400
399.999
399.625
399.294
398.99
398.708
398.441
398.187
397.942
397.702
397.462
397.213
396.944
396.639
396.277
395.831
395.27
394.56
393.666
392.555
391.201
389.586
387.703
385.56
383.179
380.597
377.862
375.028
372.158
369.314
366.553
363.927
361.747
359.706
357.849
356.2
354.777
400
400
400
400
399.999
399.626
399.294
398.992
398.709
398.443
398.19
397.945
397.706
397.465
397.216
396.947
396.642
396.28
395.833
395.272
394.561
393.666
392.554
391.199
389.582
387.697
385.553
383.171
380.589
377.852
375.019
372.149
369.305
366.545
363.919
361.74
359.699
357.843
356.195
354.773
400
400
400
400
399.999
399.626
399.295
398.993
398.711
398.445
398.192
397.948
397.708
397.468
397.219
396.949
396.643
396.28
395.832
395.269
394.557
393.66
392.546
391.188
389.569
387.682
385.537
383.155
380.572
377.836
375.004
372.135
369.292
366.533
363.909
361.731
359.692
357.837
356.19
354.769
400
400
400
400
399.999
399.627
399.297
398.995
398.714
398.448
398.196
397.952
397.713
397.473
397.224
396.955
396.649
396.286
395.839
395.276
394.563
393.666
392.551
391.193
389.573
387.686
385.54
383.157
380.574
377.837
375.004
372.134
369.291
366.532
363.907
361.73
359.69
357.835
356.189
354.767
400
400
400
400
399.999
399.628
399.298
398.996
398.716
398.451
398.198
397.955
397.717
397.477
397.228
396.958
396.652
396.287
395.839
395.274
394.559
393.66
392.543
391.182
389.56
387.672
385.525
383.143
380.56
377.824
374.991
372.124
369.282
366.524
363.901
361.724
359.686
357.832
356.186
354.765
400
400
400
400
399.999
399.629
399.3
398.999
398.719
398.455
398.204
397.961
397.723
397.484
397.235
396.966
396.661
396.297
395.849
395.286
394.572
393.673
392.558
391.198
389.577
387.688
385.542
383.159
380.575
377.839
375.005
372.136
369.292
366.533
363.908
361.73
359.691
357.836
356.189
354.768
400
400
400
400
399.999
399.629
399.301
399.001
398.721
398.457
398.205
397.962
397.724
397.484
397.235
396.965
396.658
396.293
395.843
395.277
394.56
393.658
392.538
391.175
389.552
387.663
385.516
383.134
380.551
377.817
374.985
372.119
369.278
366.521
363.898
361.722
359.685
357.831
356.185
354.765
400
400
400
400
399.999
399.63
399.302
399.001
398.72
398.455
398.201
397.956
397.715
397.474
397.222
396.951
396.642
396.275
395.822
395.253
394.534
393.629
392.506
391.14
389.514
387.622
385.471
383.086
380.5
377.763
374.93
372.062
369.221
366.465
363.844
361.672
359.639
357.79
356.149
354.733
400
400
400
400
399.999
399.624
399.288
398.978
398.686
398.409
398.142
397.882
397.626
397.368
397.098
396.804
396.47
396.072
395.583
394.972
394.204
393.245
392.064
390.637
388.948
386.996
384.791
382.36
379.74
376.982
374.142
371.281
368.461
365.737
363.159
361.047
359.076
357.29
355.712
354.357
400
400
400
400
399.999
399.574
399.192
398.837
398.501
398.178
397.864
397.556
397.248
396.933
396.598
396.226
395.792
395.267
394.615
393.799
392.781
391.527
390.012
388.222
386.159
383.837
381.288
378.557
375.7
372.781
369.864
367.013
364.286
361.729
359.382
357.627
356.013
354.589
353.367
352.354
400
400
400
400
399.999
399.773
399.518
399.247
398.966
398.682
398.396
398.11
397.821
397.522
397.206
396.855
396.449
395.96
395.354
394.597
393.649
392.478
391.056
389.364
387.4
385.172
382.707
380.044
377.235
374.34
371.421
368.544
365.766
363.138
360.703
358.702
356.919
355.359
354.019
352.897
400
400
400
400
400
399.806
399.59
399.362
399.128
398.892
398.656
398.421
398.185
397.945
397.694
397.422
397.114
396.749
396.305
395.749
395.051
394.177
393.095
391.778
390.207
388.375
386.288
383.964
381.435
378.746
375.948
373.101
370.263
367.494
364.844
362.51
360.363
358.424
356.703
355.21
400
400
400
400
400
399.81
399.601
399.381
399.157
398.932
398.709
398.488
398.267
398.044
397.811
397.56
397.276
396.942
396.532
396.017
395.364
394.541
393.513
392.254
390.743
388.969
386.936
384.658
382.165
379.5
376.714
373.865
371.013
368.218
365.531
363.145
360.941
358.941
357.16
355.607
400
400
400
400
400
399.809
399.6
399.38
399.157
398.934
398.713
398.493
398.275
398.054
397.823
397.574
397.292
396.959
396.551
396.037
395.387
394.565
393.54
392.283
390.774
389.003
386.972
384.697
382.208
379.546
376.762
373.914
371.063
368.267
365.58
363.191
360.984
358.98
357.195
355.638
400
400
400
400
400
399.809
399.599
399.38
399.157
398.933
398.712
398.493
398.275
398.054
397.824
397.576
397.295
396.964
396.558
396.047
395.4
394.582
393.56
392.307
390.801
389.031
387
384.725
382.234
379.57
376.783
373.933
371.079
368.281
365.591
363.2
360.991
358.986
357.199
355.641
400
400
400
400
400
399.808
399.598
399.377
399.153
398.929
398.707
398.487
398.269
398.047
397.817
397.568
397.286
396.954
396.546
396.035
395.386
394.567
393.545
392.29
390.783
389.013
386.982
384.707
382.217
379.553
376.768
373.919
371.067
368.27
365.583
363.193
360.985
358.981
357.195
355.638
400
400
400
400
400
399.808
399.597
399.376
399.152
398.927
398.705
398.485
398.266
398.045
397.814
397.565
397.285
396.953
396.547
396.037
395.39
394.573
393.553
392.301
390.796
389.027
386.998
384.723
382.232
379.568
376.781
373.931
371.077
368.279
365.59
363.199
360.99
358.985
357.198
355.64
400
400
400
400
400
399.807
399.596
399.375
399.149
398.924
398.701
398.481
398.262
398.039
397.809
397.56
397.279
396.947
396.54
396.03
395.383
394.566
393.546
392.295
390.79
389.022
386.993
384.718
382.229
379.565
376.78
373.93
371.077
368.279
365.59
363.199
360.991
358.986
357.199
355.641
400
400
400
400
400
399.807
399.595
399.374
399.148
398.923
398.7
398.479
398.26
398.037
397.807
397.558
397.278
396.947
396.541
396.032
395.387
394.572
393.554
392.305
390.802
389.036
387.008
384.734
382.245
379.581
376.795
373.944
371.09
368.291
365.6
363.208
360.998
358.992
357.204
355.645
400
400
400
400
400
399.807
399.595
399.373
399.147
398.921
398.697
398.476
398.256
398.034
397.804
397.555
397.275
396.944
396.538
396.029
395.385
394.571
393.554
392.306
390.804
389.039
387.013
384.74
382.252
379.588
376.803
373.952
371.098
368.298
365.608
363.215
361.004
358.997
357.209
355.649
400
400
400
400
400
399.807
399.594
399.372
399.146
398.92
398.696
398.475
398.255
398.033
397.802
397.554
397.274
396.944
396.54
396.032
395.389
394.577
393.562
392.316
390.817
389.054
387.029
384.757
382.269
379.606
376.82
373.968
371.113
368.312
365.62
363.226
361.014
359.005
357.215
355.654
400
400
400
400
400
399.806
399.594
399.372
399.145
398.919
398.695
398.473
398.253
398.031
397.801
397.553
397.273
396.943
396.539
396.033
395.392
394.581
393.567
392.323
390.825
389.064
387.04
384.77
382.283
379.62
376.834
373.982
371.126
368.325
365.632
363.236
361.023
359.013
357.222
355.66
400
400
400
400
400
399.806
399.594
399.371
399.145
398.918
398.694
398.473
398.252
398.03
397.8
397.553
397.274
396.945
396.542
396.038
395.398
394.589
393.578
392.335
390.84
389.081
387.059
384.79
382.303
379.64
376.854
374.001
371.144
368.341
365.646
363.249
361.034
359.023
357.23
355.667
400
400
400
400
400
399.806
399.594
399.371
399.144
398.918
398.693
398.472
398.252
398.03
397.8
397.553
397.275
396.946
396.545
396.041
395.403
394.596
393.587
392.347
390.853
389.096
387.075
384.808
382.322
379.659
376.873
374.02
371.161
368.357
365.661
363.262
361.046
359.033
357.239
355.674
400
400
400
400
400
399.806
399.594
399.371
399.144
398.917
398.693
398.472
398.252
398.03
397.8
397.553
397.276
396.949
396.548
396.046
395.41
394.605
393.597
392.359
390.868
389.112
387.093
384.826
382.341
379.679
376.892
374.038
371.179
368.373
365.675
363.275
361.057
359.043
357.247
355.681
400
400
400
400
400
399.806
399.594
399.371
399.144
398.917
398.693
398.472
398.252
398.03
397.8
397.553
397.276
396.948
396.548
396.046
395.409
394.604
393.597
392.358
390.866
389.11
387.091
384.824
382.339
379.677
376.89
374.036
371.177
368.371
365.674
363.274
361.056
359.042
357.246
355.68
400
400
400
400
400
399.806
399.594
399.371
399.144
398.918
398.693
398.472
398.252
398.03
397.8
397.553
397.274
396.946
396.544
396.041
395.402
394.595
393.585
392.345
390.851
389.093
387.072
384.804
382.318
379.656
376.869
374.016
371.158
368.354
365.658
363.259
361.043
359.031
357.237
355.672
400
400
400
400
400
399.806
399.594
399.371
399.145
398.918
398.694
398.473
398.252
398.03
397.8
397.553
397.274
396.944
396.542
396.036
395.396
394.587
393.575
392.332
390.836
389.077
387.054
384.784
382.297
379.635
376.848
373.996
371.139
368.336
365.641
363.245
361.03
359.019
357.227
355.664
400
400
400
400
400
399.807
399.594
399.372
399.145
398.919
398.695
398.473
398.253
398.031
397.801
397.553
397.273
396.943
396.538
396.032
395.39
394.578
393.564
392.319
390.821
389.059
387.034
384.763
382.276
379.613
376.826
373.975
371.119
368.318
365.625
363.23
361.017
359.008
357.218
355.656
400
400
400
400
400
399.807
399.595
399.372
399.146
398.92
398.696
398.475
398.255
398.033
397.802
397.554
397.274
396.943
396.538
396.03
395.387
394.574
393.558
392.311
390.811
389.047
387.021
384.749
382.26
379.597
376.81
373.959
371.104
368.303
365.612
363.218
361.007
358.999
357.21
355.65
400
400
400
400
400
399.807
399.595
399.373
399.147
398.921
398.698
398.477
398.257
398.034
397.803
397.555
397.274
396.943
396.536
396.027
395.382
394.567
393.549
392.3
390.797
389.031
387.004
384.731
382.241
379.578
376.792
373.941
371.087
368.288
365.598
363.206
360.996
358.99
357.202
355.644
400
400
400
400
400
399.807
399.596
399.374
399.148
398.923
398.7
398.479
398.26
398.037
397.807
397.558
397.277
396.945
396.539
396.029
395.384
394.568
393.549
392.298
390.794
389.027
386.998
384.723
382.233
379.569
376.782
373.932
371.078
368.279
365.589
363.198
360.989
358.984
357.197
355.639
400
400
400
400
400
399.807
399.596
399.375
399.15
398.925
398.702
398.481
398.262
398.04
397.809
397.559
397.278
396.945
396.538
396.027
395.379
394.561
393.54
392.287
390.781
389.012
386.982
384.706
382.216
379.552
376.766
373.917
371.064
368.267
365.578
363.188
360.981
358.977
357.191
355.634
400
400
400
400
400
399.808
399.597
399.377
399.152
398.928
398.705
398.485
398.266
398.045
397.814
397.565
397.284
396.952
396.545
396.034
395.386
394.568
393.547
392.293
390.787
389.017
386.986
384.71
382.218
379.554
376.767
373.917
371.063
368.266
365.577
363.187
360.979
358.975
357.19
355.633
400
400
400
400
400
399.808
399.598
399.378
399.153
398.929
398.707
398.488
398.269
398.047
397.817
397.567
397.285
396.953
396.544
396.032
395.382
394.562
393.538
392.282
390.774
389.002
386.97
384.694
382.203
379.539
376.753
373.904
371.053
368.256
365.569
363.18
360.974
358.971
357.187
355.631
400
400
400
400
400
399.809
399.6
399.38
399.157
398.934
398.712
398.493
398.275
398.054
397.824
397.575
397.294
396.962
396.555
396.044
395.395
394.576
393.554
392.299
390.791
389.02
386.988
384.712
382.22
379.555
376.768
373.918
371.064
368.267
365.578
363.188
360.98
358.976
357.191
355.634
400
400
400
400
400
399.809
399.6
399.381
399.158
398.934
398.713
398.494
398.275
398.054
397.823
397.574
397.291
396.958
396.548
396.034
395.382
394.56
393.533
392.275
390.765
388.993
386.96
384.684
382.194
379.531
376.747
373.899
371.049
368.253
365.567
363.179
360.973
358.971
357.186
355.63
400
400
400
400
400
399.81
399.601
399.381
399.157
398.933
398.71
398.488
398.267
398.044
397.811
397.56
397.276
396.94
396.529
396.013
395.36
394.535
393.507
392.246
390.734
388.959
386.924
384.646
382.152
379.487
376.701
373.852
371
368.205
365.52
363.134
360.932
358.933
357.152
355.601
400
400
400
400
400
399.806
399.59
399.363
399.128
398.892
398.656
398.421
398.185
397.945
397.694
397.422
397.113
396.748
396.303
395.747
395.048
394.172
393.089
391.771
390.2
388.368
386.28
383.956
381.427
378.738
375.94
373.093
370.257
367.488
364.84
362.506
360.36
358.422
356.702
355.209
400
400
400
400
399.999
399.774
399.519
399.247
398.967
398.683
398.397
398.111
397.821
397.523
397.206
396.856
396.45
395.961
395.357
394.6
393.654
392.484
391.064
389.375
387.413
385.188
382.726
380.066
377.26
374.366
371.449
368.572
365.794
363.166
360.73
358.727
356.943
355.38
354.038
352.913
400
400
400
400
400
399.858
399.696
399.515
399.319
399.11
398.891
398.664
398.428
398.181
397.916
397.623
397.286
396.883
396.387
395.766
394.986
394.013
392.815
391.368
389.658
387.682
385.453
382.995
380.348
377.561
374.693
371.805
368.957
366.206
363.601
361.32
359.247
357.399
355.781
354.395
400
400
400
400
400
399.878
399.742
399.593
399.434
399.266
399.092
398.912
398.727
398.535
398.332
398.111
397.862
397.569
397.213
396.77
396.212
395.508
394.628
393.541
392.223
390.658
388.839
386.771
384.472
381.974
379.317
376.553
373.736
370.926
368.176
365.634
363.243
361.036
359.037
357.262
400
400
400
400
400
399.881
399.749
399.606
399.454
399.296
399.132
398.965
398.794
398.617
398.431
398.229
398.002
397.735
397.411
397.004
396.487
395.829
394.998
393.964
392.701
391.19
389.422
387.4
385.141
382.673
380.036
377.28
374.461
371.636
368.862
366.281
363.844
361.586
359.532
357.7
400
400
400
400
400
399.88
399.748
399.606
399.454
399.297
399.135
398.97
398.8
398.626
398.442
398.242
398.017
397.752
397.429
397.023
396.508
395.851
395.021
393.988
392.726
391.217
389.45
387.431
385.174
382.708
380.073
377.32
374.502
371.677
368.903
366.321
363.883
361.622
359.565
357.731
400
400
400
400
400
399.88
399.748
399.605
399.454
399.297
399.135
398.97
398.801
398.627
398.444
398.245
398.021
397.758
397.436
397.034
396.521
395.868
395.042
394.013
392.754
391.246
389.481
387.461
385.203
382.735
380.098
377.341
374.521
371.693
368.917
366.332
363.891
361.629
359.57
357.735
400
400
400
400
400
399.88
399.747
399.604
399.452
399.294
399.131
398.965
398.796
398.621
398.437
398.238
398.013
397.749
397.427
397.023
396.509
395.854
395.027
393.996
392.736
391.227
389.461
387.442
385.184
382.717
380.082
377.326
374.507
371.682
368.906
366.324
363.884
361.623
359.566
357.731
400
400
400
400
400
399.879
399.747
399.603
399.451
399.293
399.13
398.964
398.794
398.62
398.436
398.237
398.012
397.749
397.428
397.025
396.513
395.86
395.035
394.007
392.749
391.242
389.478
387.459
385.201
382.733
380.097
377.34
374.519
371.692
368.915
366.331
363.89
361.628
359.57
357.734
400
400
400
400
400
399.879
399.746
399.602
399.449
399.29
399.127
398.961
398.79
398.615
398.431
398.232
398.007
397.743
397.421
397.018
396.506
395.853
395.028
394
392.742
391.235
389.471
387.453
385.196
382.73
380.094
377.338
374.518
371.692
368.916
366.332
363.892
361.629
359.571
357.735
400
400
400
400
400
399.879
399.746
399.601
399.448
399.289
399.126
398.959
398.789
398.614
398.43
398.231
398.007
397.743
397.422
397.02
396.509
395.859
395.035
394.009
392.753
391.249
389.487
387.469
385.213
382.747
380.11
377.354
374.533
371.705
368.928
366.343
363.9
361.637
359.577
357.741
400
400
400
400
400
399.879
399.745
399.601
399.447
399.288
399.124
398.957
398.787
398.611
398.427
398.228
398.004
397.741
397.42
397.018
396.507
395.857
395.035
394.009
392.755
391.251
389.49
387.474
385.219
382.754
380.118
377.362
374.541
371.714
368.936
366.35
363.907
361.643
359.583
357.745
400
400
400
400
400
399.879
399.745
399.6
399.447
399.287
399.123
398.956
398.786
398.61
398.426
398.227
398.004
397.741
397.421
397.021
396.511
395.863
395.042
394.019
392.766
391.265
389.506
387.491
385.237
382.772
380.136
377.379
374.558
371.729
368.95
366.363
363.919
361.653
359.591
357.752
400
400
400
400
400
399.879
399.745
399.6
399.446
399.286
399.122
398.955
398.784
398.609
398.425
398.226
398.003
397.74
397.421
397.021
396.513
395.865
395.046
394.024
392.773
391.274
389.516
387.503
385.25
382.785
380.15
377.394
374.572
371.743
368.963
366.375
363.929
361.662
359.599
357.76
400
400
400
400
400
399.879
399.745
399.6
399.446
399.286
399.122
398.954
398.784
398.608
398.424
398.226
398.003
397.742
397.424
397.025
396.518
395.873
395.055
394.036
392.787
391.289
389.533
387.521
385.269
382.806
380.171
377.414
374.591
371.761
368.979
366.39
363.943
361.674
359.609
357.768
400
400
400
400
400
399.879
399.745
399.6
399.446
399.286
399.121
398.954
398.783
398.607
398.424
398.226
398.003
397.743
397.425
397.028
396.523
395.879
395.063
394.045
392.798
391.302
389.548
387.538
385.287
382.824
380.189
377.432
374.609
371.778
368.996
366.405
363.956
361.686
359.62
357.777
400
400
400
400
400
399.879
399.745
399.6
399.446
399.286
399.121
398.954
398.783
398.607
398.424
398.226
398.004
397.745
397.428
397.032
396.528
395.886
395.072
394.056
392.811
391.317
389.565
387.556
385.306
382.844
380.209
377.452
374.628
371.795
369.012
366.419
363.969
361.697
359.63
357.785
400
400
400
400
400
399.879
399.745
399.6
399.446
399.286
399.121
398.954
398.783
398.607
398.424
398.226
398.004
397.744
397.428
397.032
396.528
395.885
395.071
394.055
392.81
391.316
389.563
387.554
385.304
382.842
380.207
377.45
374.626
371.794
369.01
366.418
363.968
361.696
359.628
357.784
400
400
400
400
400
399.879
399.745
399.6
399.446
399.286
399.121
398.954
398.783
398.607
398.424
398.226
398.003
397.742
397.425
397.027
396.522
395.877
395.061
394.043
392.796
391.3
389.545
387.535
385.283
382.82
380.185
377.428
374.605
371.774
368.992
366.401
363.953
361.683
359.617
357.775
400
400
400
400
400
399.879
399.745
399.6
399.446
399.286
399.122
398.954
398.784
398.608
398.424
398.226
398.003
397.741
397.423
397.024
396.517
395.871
395.053
394.033
392.783
391.285
389.529
387.516
385.264
382.8
380.165
377.408
374.585
371.755
368.974
366.384
363.938
361.67
359.606
357.765
400
400
400
400
400
399.879
399.745
399.6
399.446
399.287
399.122
398.955
398.784
398.609
398.425
398.226
398.002
397.74
397.42
397.02
396.511
395.863
395.043
394.021
392.769
391.269
389.51
387.496
385.243
382.778
380.142
377.386
374.564
371.735
368.955
366.368
363.923
361.657
359.594
357.755
400
400
400
400
400
399.879
399.745
399.601
399.447
399.287
399.124
398.956
398.786
398.61
398.426
398.227
398.003
397.741
397.42
397.019
396.509
395.86
395.038
394.014
392.761
391.259
389.498
387.483
385.228
382.762
380.126
377.37
374.548
371.72
368.941
366.354
363.911
361.646
359.585
357.747
400
400
400
400
400
399.879
399.745
399.601
399.448
399.288
399.124
398.957
398.787
398.611
398.427
398.227
398.003
397.74
397.419
397.016
396.505
395.854
395.03
394.004
392.748
391.244
389.482
387.465
385.209
382.743
380.107
377.351
374.53
371.703
368.925
366.34
363.898
361.635
359.575
357.739
400
400
400
400
400
399.879
399.746
399.602
399.449
399.29
399.126
398.959
398.789
398.614
398.43
398.23
398.006
397.742
397.421
397.018
396.507
395.855
395.031
394.003
392.746
391.24
389.477
387.459
385.202
382.735
380.098
377.341
374.52
371.693
368.916
366.331
363.89
361.628
359.569
357.733
400
400
400
400
400
399.879
399.746
399.602
399.449
399.29
399.127
398.961
398.791
398.615
398.431
398.231
398.006
397.742
397.42
397.016
396.503
395.849
395.023
393.993
392.734
391.226
389.461
387.441
385.184
382.717
380.08
377.324
374.504
371.679
368.903
366.32
363.88
361.619
359.562
357.727
400
400
400
400
400
399.879
399.747
399.603
399.451
399.293
399.13
398.964
398.794
398.62
398.436
398.236
398.012
397.748
397.426
397.022
396.509
395.856
395.03
394
392.74
391.232
389.466
387.446
385.187
382.719
380.082
377.325
374.504
371.678
368.901
366.318
363.878
361.617
359.56
357.726
400
400
400
400
400
399.88
399.747
399.604
399.452
399.294
399.131
398.966
398.796
398.621
398.437
398.238
398.012
397.748
397.425
397.02
396.505
395.849
395.021
393.989
392.727
391.217
389.45
387.429
385.17
382.703
380.066
377.311
374.491
371.666
368.892
366.31
363.872
361.612
359.555
357.722
400
400
400
400
400
399.88
399.748
399.605
399.454
399.297
399.135
398.97
398.801
398.627
398.444
398.245
398.02
397.756
397.435
397.031
396.518
395.863
395.036
394.005
392.745
391.235
389.469
387.448
385.189
382.72
380.082
377.325
374.505
371.678
368.902
366.318
363.879
361.617
359.56
357.726
400
400
400
400
400
399.88
399.748
399.606
399.455
399.297
399.135
398.97
398.801
398.626
398.442
398.242
398.016
397.751
397.427
397.021
396.504
395.846
395.015
393.981
392.717
391.206
389.439
387.418
385.16
382.693
380.058
377.304
374.486
371.662
368.889
366.308
363.87
361.611
359.555
357.722
400
400
400
400
400
399.881
399.749
399.606
399.454
399.296
399.132
398.965
398.794
398.617
398.43
398.228
398.001
397.734
397.409
397.001
396.483
395.824
394.992
393.957
392.692
391.18
389.411
387.388
385.128
382.659
380.022
377.266
374.447
371.622
368.848
366.269
363.833
361.576
359.523
357.693
400
400
400
400
400
399.878
399.742
399.593
399.434
399.266
399.092
398.912
398.727
398.535
398.332
398.111
397.861
397.568
397.211
396.768
396.209
395.504
394.622
393.534
392.216
390.65
388.83
386.761
384.462
381.964
379.307
376.543
373.727
370.917
368.169
365.628
363.238
361.032
359.033
357.259
400
400
400
400
400
399.858
399.696
399.516
399.319
399.11
398.892
398.664
398.428
398.181
397.916
397.623
397.286
396.884
396.388
395.768
394.99
394.017
392.821
391.376
389.668
387.695
385.469
383.013
380.369
377.585
374.718
371.831
368.984
366.233
363.628
361.346
359.271
357.421
355.801
354.413
400
400
400
400
400
399.891
399.772
399.641
399.499
399.347
399.186
399.017
398.838
398.648
398.443
398.216
397.955
397.644
397.262
396.783
396.177
395.41
394.452
393.272
391.847
390.164
388.219
386.024
383.602
380.99
378.236
375.394
372.525
369.688
366.939
364.433
362.098
359.963
358.05
356.369
400
400
400
400
400
399.906
399.804
399.696
399.581
399.46
399.333
399.201
399.064
398.92
398.767
398.599
398.409
398.187
397.917
397.58
397.154
396.611
395.923
395.06
393.994
392.702
391.167
389.381
387.35
385.09
382.629
380.007
377.273
374.48
371.684
369.014
366.442
364.011
361.757
359.709
400
400
400
400
400
399.907
399.809
399.705
399.595
399.481
399.362
399.24
399.113
398.981
398.842
398.689
398.518
398.317
398.073
397.766
397.375
396.872
396.226
395.409
394.391
393.147
391.659
389.919
387.928
385.702
383.267
380.663
377.937
375.142
372.335
369.64
367.036
364.566
362.267
360.17
400
400
400
400
400
399.907
399.809
399.705
399.596
399.482
399.365
399.244
399.119
398.989
398.851
398.701
398.532
398.332
398.09
397.785
397.395
396.892
396.248
395.431
394.414
393.171
391.684
389.944
387.954
385.73
383.297
380.695
377.97
375.177
372.37
369.675
367.07
364.598
362.298
360.199
400
400
400
400
400
399.907
399.809
399.705
399.595
399.482
399.364
399.244
399.119
398.99
398.853
398.704
398.535
398.338
398.097
397.794
397.406
396.907
396.266
395.453
394.438
393.197
391.712
389.973
387.983
385.757
383.322
380.718
377.99
375.194
372.384
369.687
367.079
364.606
362.304
360.204
400
400
400
400
400
399.907
399.808
399.704
399.594
399.48
399.362
399.241
399.116
398.986
398.848
398.699
398.53
398.332
398.09
397.786
397.397
396.896
396.254
395.439
394.423
393.181
391.695
389.956
387.966
385.74
383.307
380.703
377.977
375.182
372.374
369.678
367.072
364.6
362.299
360.2
400
400
400
400
400
399.907
399.808
399.703
399.593
399.479
399.361
399.24
399.115
398.985
398.847
398.698
398.529
398.332
398.091
397.788
397.4
396.901
396.261
395.448
394.435
393.194
391.71
389.971
387.982
385.756
383.322
380.717
377.99
375.194
372.384
369.687
367.079
364.606
362.304
360.204
400
400
400
400
400
399.907
399.807
399.702
399.592
399.477
399.359
399.237
399.112
398.981
398.844
398.694
398.525
398.327
398.086
397.783
397.395
396.895
396.255
395.442
394.429
393.189
391.705
389.967
387.978
385.754
383.32
380.716
377.99
375.194
372.385
369.689
367.081
364.608
362.306
360.206
400
400
400
400
400
399.907
399.807