/*--------------------------------*- C++ -*----------------------------------*\
| =========                 |                                                 |
| \\      /  F ield         | OpenFOAM: The Open Source CFD Toolbox           |
|  \\    /   O peration     | Version:  5.0                                   |
|   \\  /    A nd           | Web:      www.OpenFOAM.org                      |
|    \\/     M anipulation  |                                                 |
\*---------------------------------------------------------------------------*/
FoamFile
{
    version     2.0;
    format      ascii;
    class       volVectorField;
    location    "100/porous";
    object      U;
}
// * * * * * * * * * * * * * * * * * * * * * * * * * * * * * * * * * * * * * //

dimensions      [0 1 -1 0 0 0 0];

internalField   nonuniform List<vector> 
36000
(
(0.00555056 7.02127e-05 0.000289042)
(0.00340903 4.42554e-05 6.71224e-05)
(0.0022033 3.69668e-05 1.37094e-05)
(0.00180689 3.07772e-05 1.60362e-06)
(0.00158045 2.56157e-05 1.9434e-07)
(0.00143105 2.17069e-05 -4.30203e-08)
(0.00132036 1.87479e-05 -9.96908e-08)
(0.0012332 1.64762e-05 -1.39389e-07)
(0.00116252 1.46924e-05 -1.699e-07)
(0.00110412 1.32555e-05 -1.91655e-07)
(0.00105536 1.20559e-05 -2.06636e-07)
(0.00101451 1.10045e-05 -2.1477e-07)
(0.000980277 1.00322e-05 -2.14976e-07)
(0.000951696 9.09245e-06 -2.06406e-07)
(0.00092796 8.1621e-06 -1.89444e-07)
(0.00090839 7.23862e-06 -1.65977e-07)
(0.000892406 6.33349e-06 -1.39006e-07)
(0.000879512 5.46468e-06 -1.11816e-07)
(0.000869278 4.64862e-06 -8.71753e-08)
(0.000861322 3.89617e-06 -6.66738e-08)
(0.000855296 3.21453e-06 -5.0764e-08)
(0.000850874 2.60789e-06 -3.90811e-08)
(0.000847754 2.07606e-06 -3.07192e-08)
(0.000845671 1.61871e-06 -2.45391e-08)
(0.000844362 1.23732e-06 -1.99026e-08)
(0.000843599 9.27427e-07 -1.63617e-08)
(0.000843205 6.81567e-07 -1.35645e-08)
(0.000843048 4.91774e-07 -1.12796e-08)
(0.000843032 3.47814e-07 -9.20879e-09)
(0.00084309 2.41111e-07 -7.39499e-09)
(0.000843182 1.63952e-07 -5.84834e-09)
(0.00084328 1.09316e-07 -4.51837e-09)
(0.000843372 7.16035e-08 -3.43133e-09)
(0.000843449 4.62441e-08 -2.56226e-09)
(0.000843511 3.02208e-08 -1.93021e-09)
(0.000843556 2.04334e-08 -1.48945e-09)
(0.000843594 1.68293e-08 -1.35764e-09)
(0.000843593 9.82132e-09 -8.214e-10)
(0.000843657 2.68249e-08 -4.26586e-09)
(0.000843648 2.18703e-08 -2.77202e-09)
(0.0056243 8.38012e-05 0.000295874)
(0.00352515 5.57849e-05 6.94442e-05)
(0.00238478 4.95065e-05 1.59398e-05)
(0.00202144 4.17627e-05 3.37307e-06)
(0.00182326 3.58536e-05 1.57244e-06)
(0.00169658 3.13523e-05 1.11685e-06)
(0.00160438 2.78055e-05 9.10545e-07)
(0.00153258 2.49194e-05 7.61406e-07)
(0.00147496 2.24563e-05 6.47749e-07)
(0.00142793 2.02344e-05 5.6186e-07)
(0.00138934 1.80996e-05 4.96463e-07)
(0.00135777 1.59265e-05 4.47397e-07)
(0.00133218 1.36334e-05 4.12339e-07)
(0.00131167 1.11982e-05 3.89456e-07)
(0.00129547 8.66585e-06 3.76339e-07)
(0.00128285 6.13859e-06 3.6953e-07)
(0.00127319 3.75103e-06 3.64633e-07)
(0.00126593 1.63778e-06 3.57891e-07)
(0.00126061 -9.32966e-08 3.46309e-07)
(0.00125685 -1.3807e-06 3.2737e-07)
(0.0012543 -2.21921e-06 3.00869e-07)
(0.00125268 -2.65266e-06 2.6806e-07)
(0.00125176 -2.75795e-06 2.3114e-07)
(0.00125134 -2.62586e-06 1.92773e-07)
(0.00125126 -2.34383e-06 1.5565e-07)
(0.00125142 -1.98777e-06 1.21844e-07)
(0.0012517 -1.61534e-06 9.26251e-08)
(0.00125205 -1.26504e-06 6.8508e-08)
(0.0012524 -9.5958e-07 4.92887e-08)
(0.00125273 -7.06947e-07 3.45124e-08)
(0.00125302 -5.06753e-07 2.35129e-08)
(0.00125326 -3.54266e-07 1.55791e-08)
(0.00125345 -2.41791e-07 1.00492e-08)
(0.00125359 -1.61064e-07 6.29736e-09)
(0.0012537 -1.03619e-07 3.82555e-09)
(0.00125378 -6.36305e-08 2.27402e-09)
(0.00125384 -3.18178e-08 1.31276e-09)
(0.00125386 -1.51789e-08 5.12279e-10)
(0.00125391 3.27957e-08 -1.19279e-09)
(0.00125392 3.64397e-08 -1.16109e-09)
(0.00561665 4.31971e-05 0.000294818)
(0.00351436 3.87519e-05 6.83113e-05)
(0.0023904 3.89876e-05 1.53283e-05)
(0.00203488 3.50421e-05 2.96287e-06)
(0.00184485 3.11549e-05 1.27002e-06)
(0.00172567 2.77818e-05 8.89253e-07)
(0.00164045 2.48273e-05 7.25913e-07)
(0.00157521 2.22215e-05 6.02135e-07)
(0.0015237 1.98362e-05 5.02777e-07)
(0.00148232 1.75378e-05 4.23166e-07)
(0.00144885 1.51993e-05 3.57104e-07)
(0.0014218 1.27213e-05 3.0049e-07)
(0.00140003 1.00557e-05 2.509e-07)
(0.00138262 7.22532e-06 2.07018e-07)
(0.00136874 4.32787e-06 1.68008e-07)
(0.00135767 1.51929e-06 1.3318e-07)
(0.00134879 -1.01964e-06 1.02025e-07)
(0.00134162 -3.12379e-06 7.37213e-08)
(0.0013358 -4.67855e-06 4.79597e-08)
(0.00133108 -5.64028e-06 2.54862e-08)
(0.00132729 -6.03922e-06 6.82598e-09)
(0.00132431 -5.96356e-06 -7.49242e-09)
(0.00132203 -5.53354e-06 -1.72876e-08)
(0.00132034 -4.87895e-06 -2.29674e-08)
(0.00131912 -4.11954e-06 -2.52519e-08)
(0.0013183 -3.3492e-06 -2.50034e-08)
(0.00131777 -2.63274e-06 -2.30753e-08)
(0.00131746 -2.00807e-06 -2.00269e-08)
(0.0013173 -1.49026e-06 -1.6476e-08)
(0.00131723 -1.0785e-06 -1.30105e-08)
(0.00131722 -7.62528e-07 -9.88515e-09)
(0.00131725 -5.27685e-07 -7.26266e-09)
(0.00131729 -3.57808e-07 -5.18092e-09)
(0.00131733 -2.37663e-07 -3.59416e-09)
(0.00131736 -1.53574e-07 -2.44217e-09)
(0.0013174 -9.57782e-08 -1.62652e-09)
(0.00131742 -5.22013e-08 -1.05859e-09)
(0.00131744 -2.4103e-08 -7.71873e-10)
(0.00131747 2.19737e-08 -7.04265e-10)
(0.00131747 3.15992e-08 -5.57148e-10)
(0.00560903 3.72154e-05 0.000295464)
(0.00349578 4.16628e-05 6.8914e-05)
(0.00237454 4.08914e-05 1.57372e-05)
(0.00202139 3.65795e-05 3.25941e-06)
(0.00183445 3.22239e-05 1.48257e-06)
(0.0017183 2.84256e-05 1.04566e-06)
(0.00163591 2.51447e-05 8.42461e-07)
(0.00157328 2.2305e-05 6.91806e-07)
(0.00152415 1.97691e-05 5.74563e-07)
(0.00148487 1.73976e-05 4.83131e-07)
(0.00145321 1.50654e-05 4.09497e-07)
(0.00142763 1.26785e-05 3.48464e-07)
(0.001407 1.01911e-05 2.97055e-07)
(0.00139038 7.61746e-06 2.53762e-07)
(0.00137698 5.03205e-06 2.17785e-07)
(0.00136612 2.55454e-06 1.88437e-07)
(0.00135725 3.22229e-07 1.6485e-07)
(0.00134997 -1.54121e-06 1.45917e-07)
(0.00134396 -2.95276e-06 1.30418e-07)
(0.00133902 -3.88406e-06 1.17055e-07)
(0.00133502 -4.36024e-06 1.04842e-07)
(0.00133183 -4.44847e-06 9.30813e-08)
(0.00132936 -4.24032e-06 8.14648e-08)
(0.00132751 -3.83342e-06 7.00064e-08)
(0.00132618 -3.31769e-06 5.88949e-08)
(0.00132527 -2.76673e-06 4.84385e-08)
(0.00132469 -2.23407e-06 3.89121e-08)
(0.00132434 -1.75327e-06 3.05371e-08)
(0.00132415 -1.34141e-06 2.34135e-08)
(0.00132408 -1.00335e-06 1.75505e-08)
(0.00132407 -7.35369e-07 1.28574e-08)
(0.0013241 -5.29055e-07 9.21155e-09)
(0.00132414 -3.73957e-07 6.45075e-09)
(0.00132418 -2.59587e-07 4.42921e-09)
(0.00132423 -1.75859e-07 2.97838e-09)
(0.00132426 -1.15448e-07 1.9637e-09)
(0.00132429 -6.87949e-08 1.3275e-09)
(0.00132431 -3.70499e-08 6.59287e-10)
(0.00132435 1.09372e-09 4.08288e-10)
(0.00132434 1.8107e-08 1.24428e-10)
(0.00560508 2.4884e-05 0.00029527)
(0.00348635 3.1902e-05 6.85609e-05)
(0.00236679 3.29809e-05 1.53587e-05)
(0.00201483 3.08213e-05 2.95317e-06)
(0.0018291 2.79673e-05 1.237e-06)
(0.00171393 2.51488e-05 8.47908e-07)
(0.00163233 2.25049e-05 6.79526e-07)
(0.00157036 2.00745e-05 5.54164e-07)
(0.00152178 1.78075e-05 4.54992e-07)
(0.00148297 1.5624e-05 3.75945e-07)
(0.00145171 1.34411e-05 3.10098e-07)
(0.00142649 1.11937e-05 2.52977e-07)
(0.00140617 8.85326e-06 2.02116e-07)
(0.00138986 6.43984e-06 1.56505e-07)
(0.00137677 4.02309e-06 1.15954e-07)
(0.00136624 1.71057e-06 8.05755e-08)
(0.00135774 -3.74421e-07 5.04932e-08)
(0.00135081 -2.11894e-06 2.57342e-08)
(0.00134515 -3.4438e-06 6.09873e-09)
(0.00134051 -4.31714e-06 -8.7091e-09)
(0.00133674 -4.75658e-06 -1.91206e-08)
(0.00133369 -4.82005e-06 -2.57266e-08)
(0.00133127 -4.59058e-06 -2.93243e-08)
(0.00132941 -4.16042e-06 -3.00501e-08)
(0.001328 -3.61708e-06 -2.83604e-08)
(0.00132696 -3.03409e-06 -2.54387e-08)
(0.00132622 -2.4663e-06 -2.19384e-08)
(0.00132571 -1.94955e-06 -1.82549e-08)
(0.00132537 -1.503e-06 -1.47206e-08)
(0.00132516 -1.13294e-06 -1.154e-08)
(0.00132503 -8.36759e-07 -8.79765e-09)
(0.00132496 -6.06566e-07 -6.53332e-09)
(0.00132492 -4.31976e-07 -4.73935e-09)
(0.00132491 -3.02189e-07 -3.36609e-09)
(0.00132491 -2.06757e-07 -2.33513e-09)
(0.00132491 -1.37528e-07 -1.59842e-09)
(0.00132492 -8.52743e-08 -1.02649e-09)
(0.00132493 -4.82219e-08 -8.46404e-10)
(0.00132495 -1.33361e-08 -4.28297e-10)
(0.00132492 7.63547e-09 5.74387e-11)
(0.005603 2.06391e-05 0.000295425)
(0.00348002 3.0053e-05 6.88203e-05)
(0.00235912 3.204e-05 1.56024e-05)
(0.00200677 3.05466e-05 3.17537e-06)
(0.00182127 2.79685e-05 1.42934e-06)
(0.00170659 2.51986e-05 1.01145e-06)
(0.00162553 2.25212e-05 8.17707e-07)
(0.00156412 2.00411e-05 6.7163e-07)
(0.00151606 1.77482e-05 5.5626e-07)
(0.00147773 1.55856e-05 4.64953e-07)
(0.0014469 1.34846e-05 3.90255e-07)
(0.00142206 1.13871e-05 3.27254e-07)
(0.0014021 9.26297e-06 2.7314e-07)
(0.00138613 7.1198e-06 2.26572e-07)
(0.00137339 5.00351e-06 1.87004e-07)
(0.00136323 2.98952e-06 1.54106e-07)
(0.0013551 1.16609e-06 1.27409e-07)
(0.00134856 -3.85399e-07 1.06222e-07)
(0.00134327 -1.60682e-06 8.96472e-08)
(0.00133899 -2.47357e-06 7.66373e-08)
(0.00133553 -2.99614e-06 6.61203e-08)
(0.00133276 -3.21474e-06 5.72775e-08)
(0.00133058 -3.18878e-06 4.95162e-08)
(0.00132889 -2.98561e-06 4.24635e-08)
(0.00132762 -2.67045e-06 3.5961e-08)
(0.00132669 -2.2996e-06 2.99618e-08)
(0.00132603 -1.91715e-06 2.4503e-08)
(0.00132559 -1.55394e-06 1.9646e-08)
(0.0013253 -1.22857e-06 1.54336e-08)
(0.00132512 -9.50074e-07 1.18773e-08)
(0.00132501 -7.20359e-07 8.95723e-09)
(0.00132496 -5.36395e-07 6.62085e-09)
(0.00132494 -3.92552e-07 4.79672e-09)
(0.00132493 -2.82248e-07 3.41035e-09)
(0.00132494 -1.98568e-07 2.38443e-09)
(0.00132495 -1.35887e-07 1.63229e-09)
(0.00132496 -8.76674e-08 1.16458e-09)
(0.00132497 -5.21751e-08 5.70819e-10)
(0.00132499 -2.19609e-08 4.61243e-10)
(0.00132495 -3.93782e-10 5.55952e-10)
(0.00560161 1.56234e-05 0.000295385)
(0.00347577 2.40732e-05 6.87263e-05)
(0.00235409 2.62549e-05 1.5454e-05)
(0.00200189 2.55556e-05 3.02438e-06)
(0.00181682 2.37745e-05 1.28963e-06)
(0.0017026 2.16656e-05 8.86174e-07)
(0.00162196 1.95188e-05 7.06895e-07)
(0.0015609 1.74568e-05 5.73938e-07)
(0.00151312 1.54985e-05 4.69743e-07)
(0.00147502 1.36155e-05 3.87417e-07)
(0.00144437 1.17623e-05 3.19507e-07)
(0.0014197 9.89851e-06 2.61186e-07)
(0.00139992 8.00432e-06 2.09781e-07)
(0.00138416 6.08965e-06 1.64146e-07)
(0.00137166 4.19583e-06 1.24024e-07)
(0.00136179 2.38879e-06 8.94612e-08)
(0.00135398 7.45929e-07 6.04947e-08)
(0.00134778 -6.59909e-07 3.69853e-08)
(0.00134283 -1.77436e-06 1.86243e-08)
(0.00133887 -2.57159e-06 4.88521e-09)
(0.00133567 -3.0563e-06 -4.84885e-09)
(0.00133311 -3.26035e-06 -1.12312e-08)
(0.00133107 -3.23441e-06 -1.49254e-08)
(0.00132947 -3.03792e-06 -1.66751e-08)
(0.00132823 -2.73061e-06 -1.67735e-08)
(0.00132728 -2.36541e-06 -1.55625e-08)
(0.00132658 -1.98491e-06 -1.37475e-08)
(0.00132607 -1.6198e-06 -1.16979e-08)
(0.0013257 -1.28951e-06 -9.6331e-09)
(0.00132545 -1.00407e-06 -7.70839e-09)
(0.00132528 -7.66323e-07 -6.01055e-09)
(0.00132517 -5.74204e-07 -4.57298e-09)
(0.0013251 -4.22775e-07 -3.3979e-09)
(0.00132505 -3.05839e-07 -2.47533e-09)
(0.00132503 -2.16715e-07 -1.76504e-09)
(0.00132501 -1.49678e-07 -1.24615e-09)
(0.00132501 -9.86273e-08 -8.06755e-10)
(0.001325 -6.06084e-08 -7.33121e-10)
(0.00132502 -3.06303e-08 -3.5863e-10)
(0.00132497 -7.12414e-09 3.01519e-10)
(0.00560094 1.28811e-05 0.000295428)
(0.00347324 2.105e-05 6.88154e-05)
(0.00235029 2.371e-05 1.55519e-05)
(0.00199755 2.36269e-05 3.12866e-06)
(0.00181231 2.23248e-05 1.39323e-06)
(0.00169813 2.05332e-05 9.84099e-07)
(0.00161764 1.85957e-05 7.97061e-07)
(0.00155678 1.66786e-05 6.55945e-07)
(0.00150921 1.48384e-05 5.44133e-07)
(0.00147132 1.30738e-05 4.552e-07)
(0.00144088 1.13585e-05 3.81902e-07)
(0.00141642 9.66326e-06 3.19492e-07)
(0.00139685 7.97111e-06 2.6528e-07)
(0.0013813 6.28632e-06 2.18045e-07)
(0.00136905 4.63664e-06 1.77366e-07)
(0.00135944 3.06877e-06 1.43067e-07)
(0.00135191 1.63871e-06 1.14875e-07)
(0.00134601 3.99942e-07 9.22649e-08)
(0.00134135 -6.07174e-07 7.45174e-08)
(0.00133766 -1.36229e-06 6.07584e-08)
(0.00133472 -1.86743e-06 5.00881e-08)
(0.00133239 -2.14455e-06 4.16627e-08)
(0.00133054 -2.23023e-06 3.48395e-08)
(0.00132908 -2.16843e-06 2.91489e-08)
(0.00132796 -2.00425e-06 2.42728e-08)
(0.0013271 -1.77872e-06 2.00364e-08)
(0.00132646 -1.52575e-06 1.63326e-08)
(0.00132599 -1.27108e-06 1.31158e-08)
(0.00132566 -1.03222e-06 1.0363e-08)
(0.00132543 -8.19498e-07 8.04422e-09)
(0.00132527 -6.37478e-07 6.13249e-09)
(0.00132517 -4.8669e-07 4.5941e-09)
(0.0013251 -3.6501e-07 3.38218e-09)
(0.00132506 -2.68858e-07 2.44448e-09)
(0.00132503 -1.93936e-07 1.73947e-09)
(0.00132502 -1.36305e-07 1.20547e-09)
(0.00132501 -9.17581e-08 8.97548e-10)
(0.00132501 -5.77792e-08 3.96467e-10)
(0.00132503 -3.14423e-08 3.55352e-10)
(0.00132497 -9.73951e-09 7.00921e-10)
(0.00560043 1.01689e-05 0.000295418)
(0.00347131 1.69994e-05 6.87909e-05)
(0.00234741 1.93973e-05 1.54999e-05)
(0.00199441 1.95254e-05 3.06538e-06)
(0.0018092 1.85892e-05 1.32653e-06)
(0.00169519 1.71833e-05 9.17422e-07)
(0.00161493 1.56107e-05 7.32748e-07)
(0.00155429 1.40231e-05 5.95221e-07)
(0.00150693 1.24785e-05 4.87421e-07)
(0.00146922 1.09841e-05 4.02358e-07)
(0.00143893 9.52315e-06 3.32441e-07)
(0.00141461 8.07461e-06 2.72715e-07)
(0.00139518 6.62611e-06 2.2039e-07)
(0.00137979 5.18205e-06 1.74248e-07)
(0.00136771 3.76591e-06 1.33943e-07)
(0.0013583 2.41696e-06 9.94678e-08)
(0.00135099 1.18272e-06 7.07805e-08)
(0.00134532 1.09429e-07 4.76336e-08)
(0.0013409 -7.66911e-07 2.95904e-08)
(0.00133743 -1.42642e-06 1.60583e-08)
(0.00133469 -1.86845e-06 6.31331e-09)
(0.0013325 -2.10955e-06 -3.44812e-10)
(0.00133077 -2.17957e-06 -4.58087e-09)
(0.00132939 -2.11595e-06 -6.96864e-09)
(0.0013283 -1.95784e-06 -8.03756e-09)
(0.00132745 -1.74203e-06 -8.22975e-09)
(0.00132679 -1.49947e-06 -7.7315e-09)
(0.0013263 -1.25412e-06 -6.80766e-09)
(0.00132593 -1.02268e-06 -5.76052e-09)
(0.00132565 -8.15276e-07 -4.72427e-09)
(0.00132545 -6.36762e-07 -3.76296e-09)
(0.00132531 -4.88045e-07 -2.92379e-09)
(0.00132521 -3.67386e-07 -2.21674e-09)
(0.00132515 -2.71616e-07 -1.65046e-09)
(0.0013251 -1.96805e-07 -1.19765e-09)
(0.00132507 -1.39136e-07 -8.66748e-10)
(0.00132505 -9.47488e-08 -5.56897e-10)
(0.00132504 -6.07738e-08 -5.75306e-10)
(0.00132505 -3.48953e-08 -2.69983e-10)
(0.00132498 -1.29283e-08 4.52002e-10)
(0.00560017 8.21794e-06 0.00029543)
(0.00347016 1.40979e-05 6.88216e-05)
(0.00234539 1.64525e-05 1.55361e-05)
(0.00199197 1.6867e-05 3.10819e-06)
(0.00180654 1.62919e-05 1.37396e-06)
(0.00169248 1.52204e-05 9.66558e-07)
(0.00161225 1.39349e-05 7.81694e-07)
(0.00155168 1.25898e-05 6.42791e-07)
(0.00150442 1.12562e-05 5.32982e-07)
(0.00146681 9.95656e-06 4.4569e-07)
(0.00143663 8.68785e-06 3.73628e-07)
(0.00141242 7.43833e-06 3.12025e-07)
(0.00139311 6.19977e-06 2.58212e-07)
(0.00137786 4.97491e-06 2.11e-07)
(0.00136593 3.78011e-06 1.70027e-07)
(0.00135669 2.64356e-06 1.35215e-07)
(0.00134957 1.6e-06 1.06395e-07)
(0.0013441 6.8373e-07 8.31556e-08)
(0.00133988 -7.81123e-08 6.48676e-08)
(0.0013366 -6.69929e-07 5.07686e-08)
(0.00133404 -1.09009e-06 4.00153e-08)
(0.00133201 -1.34976e-06 3.18181e-08)
(0.00133041 -1.47025e-06 2.55079e-08)
(0.00132914 -1.47916e-06 2.05696e-08)
(0.00132814 -1.40583e-06 1.66251e-08)
(0.00132735 -1.27847e-06 1.34039e-08)
(0.00132674 -1.1214e-06 1.07513e-08)
(0.00132627 -9.53935e-07 8.54254e-09)
(0.00132592 -7.90171e-07 6.70684e-09)
(0.00132566 -6.39265e-07 5.19722e-09)
(0.00132547 -5.06364e-07 3.96727e-09)
(0.00132533 -3.93387e-07 2.98059e-09)
(0.00132523 -2.99994e-07 2.20572e-09)
(0.00132516 -2.24557e-07 1.60497e-09)
(0.00132511 -1.64663e-07 1.15471e-09)
(0.00132508 -1.17755e-07 8.02742e-10)
(0.00132506 -8.11898e-08 6.22867e-10)
(0.00132505 -5.27294e-08 2.17827e-10)
(0.00132506 -3.09669e-08 2.34232e-10)
(0.00132499 -1.20913e-08 7.48603e-10)
(0.00559996 6.37491e-06 0.000295427)
(0.00346924 1.10297e-05 6.88154e-05)
(0.00234381 1.29732e-05 1.55188e-05)
(0.00199009 1.33656e-05 3.08404e-06)
(0.00180456 1.2951e-05 1.34568e-06)
(0.00169052 1.21144e-05 9.35495e-07)
(0.00161038 1.10894e-05 7.49239e-07)
(0.00154994 1.0006e-05 6.10039e-07)
(0.0015028 8.92646e-06 5.00652e-07)
(0.0014653 7.87245e-06 4.14191e-07)
(0.00143523 6.84352e-06 3.43109e-07)
(0.00141112 5.83114e-06 2.82451e-07)
(0.00139191 4.82873e-06 2.29417e-07)
(0.00137677 3.83801e-06 1.82755e-07)
(0.00136496 2.87148e-06 1.42096e-07)
(0.00135586 1.9513e-06 1.0741e-07)
(0.00134889 1.10524e-06 7.8613e-08)
(0.00134357 3.61261e-07 5.5426e-08)
(0.00133951 -2.57887e-07 3.73465e-08)
(0.00133638 -7.38578e-07 2.37183e-08)
(0.00133394 -1.07817e-06 1.37935e-08)
(0.00133203 -1.28483e-06 6.83833e-09)
(0.00133051 -1.3752e-06 2.17446e-09)
(0.00132929 -1.37153e-06 -7.69214e-10)
(0.00132832 -1.29811e-06 -2.457e-09)
(0.00132755 -1.17848e-06 -3.27311e-09)
(0.00132694 -1.0334e-06 -3.52206e-09)
(0.00132646 -8.79572e-07 -3.41792e-09)
(0.00132609 -7.29338e-07 -3.06898e-09)
(0.0013258 -5.90835e-07 -2.60234e-09)
(0.00132559 -4.68646e-07 -2.12784e-09)
(0.00132543 -3.64557e-07 -1.69125e-09)
(0.00132531 -2.78388e-07 -1.30918e-09)
(0.00132522 -2.087e-07 -9.92361e-10)
(0.00132516 -1.53341e-07 -7.32522e-10)
(0.00132512 -1.0999e-07 -5.40279e-10)
(0.00132509 -7.62995e-08 -3.35095e-10)
(0.00132507 -5.0086e-08 -4.29793e-10)
(0.00132507 -3.00937e-08 -1.86112e-10)
(0.001325 -1.25024e-08 5.70745e-10)
(0.00559985 4.82448e-06 0.00029543)
(0.00346868 8.44063e-06 6.88259e-05)
(0.00234275 1.00695e-05 1.55318e-05)
(0.00198874 1.05009e-05 3.10053e-06)
(0.00180306 1.02878e-05 1.3655e-06)
(0.00168895 9.71271e-06 9.57553e-07)
(0.00160879 8.96105e-06 7.72703e-07)
(0.00154838 8.14078e-06 6.34213e-07)
(0.00150128 7.30849e-06 5.24991e-07)
(0.00146384 6.48794e-06 4.3833e-07)
(0.00143382 5.68392e-06 3.66842e-07)
(0.00140977 4.89301e-06 3.05687e-07)
(0.00139063 4.11152e-06 2.52153e-07)
(0.00137556 3.34071e-06 2.05045e-07)
(0.00136384 2.58919e-06 1.64013e-07)
(0.00135484 1.87242e-06 1.2902e-07)
(0.00134799 1.21012e-06 9.9943e-08)
(0.0013428 6.22403e-07 7.64547e-08)
(0.00133886 1.25939e-07 5.79715e-08)
(0.00133585 -2.68926e-07 4.37692e-08)
(0.00133353 -5.59483e-07 3.30578e-08)
(0.00133172 -7.50786e-07 2.50711e-08)
(0.00133029 -8.54057e-07 1.91274e-08)
(0.00132915 -8.84694e-07 1.46951e-08)
(0.00132823 -8.59961e-07 1.13575e-08)
(0.0013275 -7.96774e-07 8.80688e-09)
(0.00132692 -7.10391e-07 6.83314e-09)
(0.00132646 -6.13315e-07 5.28858e-09)
(0.0013261 -5.15036e-07 4.0652e-09)
(0.00132582 -4.22078e-07 3.10177e-09)
(0.00132561 -3.3839e-07 2.33982e-09)
(0.00132545 -2.65871e-07 1.74465e-09)
(0.00132533 -2.04949e-07 1.28314e-09)
(0.00132524 -1.55013e-07 9.29582e-10)
(0.00132517 -1.14845e-07 6.73097e-10)
(0.00132513 -8.30003e-08 4.60102e-10)
(0.0013251 -5.79929e-08 3.85304e-10)
(0.00132507 -3.82781e-08 5.86271e-11)
(0.00132508 -2.31552e-08 1.25076e-10)
(0.001325 -9.60705e-09 7.64071e-10)
(0.00559976 3.3484e-06 0.000295428)
(0.00346827 5.86849e-06 6.88239e-05)
(0.00234197 7.02851e-06 1.55262e-05)
(0.00198775 7.33558e-06 3.092e-06)
(0.00180197 7.18474e-06 1.35473e-06)
(0.00168783 6.77001e-06 9.44776e-07)
(0.00160771 6.22595e-06 7.58436e-07)
(0.00154734 5.6318e-06 6.18986e-07)
(0.0015003 5.02989e-06 5.09244e-07)
(0.00146292 4.43849e-06 4.22387e-07)
(0.00143296 3.86161e-06 3.50914e-07)
(0.00140896 3.29676e-06 2.89895e-07)
(0.00138988 2.74088e-06 2.36531e-07)
(0.00137488 2.19421e-06 1.89575e-07)
(0.00136323 1.66227e-06 1.48659e-07)
(0.00135431 1.1556e-06 1.13748e-07)
(0.00134755 6.88059e-07 8.47516e-08)
(0.00134245 2.74041e-07 6.1383e-08)
(0.00133861 -7.43224e-08 4.31171e-08)
(0.00133569 -3.493e-07 2.92747e-08)
(0.00133345 -5.4862e-07 1.9101e-08)
(0.0013317 -6.75667e-07 1.18421e-08)
(0.00133032 -7.38463e-07 6.81833e-09)
(0.00132922 -7.48158e-07 3.46702e-09)
(0.00132833 -7.17471e-07 1.32197e-09)
(0.00132761 -6.58955e-07 2.79869e-11)
(0.00132703 -5.84032e-07 -6.83983e-10)
(0.00132656 -5.02087e-07 -1.01327e-09)
(0.00132619 -4.20281e-07 -1.10757e-09)
(0.0013259 -3.43532e-07 -1.06994e-09)
(0.00132568 -2.74815e-07 -9.47785e-10)
(0.0013255 -2.1551e-07 -7.87614e-10)
(0.00132537 -1.65838e-07 -6.28949e-10)
(0.00132527 -1.25245e-07 -4.90176e-10)
(0.0013252 -9.2704e-08 -3.71254e-10)
(0.00132515 -6.70031e-08 -2.80841e-10)
(0.00132511 -4.69164e-08 -1.53268e-10)
(0.00132509 -3.11524e-08 -3.08861e-10)
(0.00132509 -1.90932e-08 -1.10433e-10)
(0.00132501 -8.15611e-09 6.68319e-10)
(0.00559971 1.98852e-06 0.000295428)
(0.00346803 3.49914e-06 6.88266e-05)
(0.00234151 4.23124e-06 1.55303e-05)
(0.00198714 4.45073e-06 3.09758e-06)
(0.00180128 4.39763e-06 1.36187e-06)
(0.0016871 4.17992e-06 9.53095e-07)
(0.00160696 3.87789e-06 7.67676e-07)
(0.0015466 3.53953e-06 6.28906e-07)
(0.00149957 3.19144e-06 5.19604e-07)
(0.0014622 2.84599e-06 4.32994e-07)
(0.00143226 2.50675e-06 3.61625e-07)
(0.00140829 2.17301e-06 3.00599e-07)
(0.00138923 1.84326e-06 2.47167e-07)
(0.00137426 1.51763e-06 2.00098e-07)
(0.00136266 1.19918e-06 1.59044e-07)
(0.0013538 8.9387e-07 1.23969e-07)
(0.00134709 6.09638e-07 9.47817e-08)
(0.00134206 3.54876e-07 7.1189e-08)
(0.00133828 1.36782e-07 5.26489e-08)
(0.00133542 -3.98892e-08 3.84554e-08)
(0.00133324 -1.73408e-07 2.78412e-08)
(0.00133155 -2.65256e-07 2.00496e-08)
(0.00133022 -3.19546e-07 1.44068e-08)
(0.00132915 -3.42262e-07 1.03571e-08)
(0.00132829 -3.4035e-07 7.4613e-09)
(0.00132759 -3.20773e-07 5.39191e-09)
(0.00132702 -2.89941e-07 3.90749e-09)
(0.00132657 -2.53219e-07 2.83818e-09)
(0.0013262 -2.14771e-07 2.05947e-09)
(0.00132591 -1.77568e-07 1.49691e-09)
(0.00132569 -1.43498e-07 1.07956e-09)
(0.00132552 -1.13576e-07 7.74002e-10)
(0.00132538 -8.81367e-08 5.50654e-10)
(0.00132528 -6.70693e-08 3.882e-10)
(0.00132521 -4.99721e-08 2.72687e-10)
(0.00132516 -3.63072e-08 1.77717e-10)
(0.00132512 -2.55117e-08 1.75952e-10)
(0.00132509 -1.69217e-08 -7.84426e-11)
(0.00132509 -1.03312e-08 2.9852e-11)
(0.00132501 -4.21704e-09 7.73595e-10)
(0.00559968 6.5296e-07 0.000295425)
(0.00346791 1.14299e-06 6.8825e-05)
(0.00234127 1.37746e-06 1.55286e-05)
(0.00198683 1.43616e-06 3.09527e-06)
(0.00180093 1.4036e-06 1.35892e-06)
(0.00168674 1.31542e-06 9.49393e-07)
(0.0016066 1.19976e-06 7.63352e-07)
(0.00154625 1.07351e-06 6.24134e-07)
(0.00149923 9.46111e-07 5.14539e-07)
(0.00146188 8.21931e-07 4.27773e-07)
(0.00143195 7.02145e-07 3.56345e-07)
(0.00140799 5.8634e-07 2.95336e-07)
(0.00138895 4.73764e-07 2.41955e-07)
(0.001374 3.6424e-07 1.94949e-07)
(0.00136243 2.5862e-07 1.53954e-07)
(0.00135359 1.5883e-07 1.1893e-07)
(0.00134692 6.7493e-08 8.97992e-08)
(0.00134192 -1.25884e-08 6.62741e-08)
(0.00133818 -7.89953e-08 4.78297e-08)
(0.00133536 -1.30221e-07 3.37767e-08)
(0.00133321 -1.65831e-07 2.3352e-08)
(0.00133154 -1.86553e-07 1.58054e-08)
(0.00133023 -1.94076e-07 1.04639e-08)
(0.00132917 -1.90765e-07 6.76774e-09)
(0.00132832 -1.79315e-07 4.2579e-09)
(0.00132762 -1.62404e-07 2.59093e-09)
(0.00132706 -1.42455e-07 1.50896e-09)
(0.0013266 -1.21492e-07 8.27295e-10)
(0.00132623 -1.01026e-07 4.11172e-10)
(0.00132594 -8.20996e-08 1.62533e-10)
(0.00132571 -6.53233e-08 2.77882e-11)
(0.00132554 -5.09601e-08 -3.7795e-11)
(0.0013254 -3.90082e-08 -6.78224e-11)
(0.0013253 -2.93073e-08 -7.44658e-11)
(0.00132522 -2.15869e-08 -6.34554e-11)
(0.00132517 -1.55299e-08 -6.32261e-11)
(0.00132513 -1.08442e-08 2.63032e-12)
(0.0013251 -7.21577e-09 -1.97047e-10)
(0.0013251 -4.45107e-09 -4.42979e-11)
(0.00132502 -1.93101e-09 7.52186e-10)
(0.00559968 -6.52785e-07 0.000295425)
(0.00346791 -1.14268e-06 6.8825e-05)
(0.00234127 -1.37706e-06 1.55286e-05)
(0.00198683 -1.43568e-06 3.09527e-06)
(0.00180093 -1.40302e-06 1.35892e-06)
(0.00168674 -1.31473e-06 9.49395e-07)
(0.0016066 -1.19897e-06 7.6335e-07)
(0.00154625 -1.07267e-06 6.24136e-07)
(0.00149923 -9.45321e-07 5.1454e-07)
(0.00146188 -8.21334e-07 4.27772e-07)
(0.00143195 -7.01915e-07 3.56345e-07)
(0.00140799 -5.86622e-07 2.95334e-07)
(0.00138895 -4.74632e-07 2.41952e-07)
(0.001374 -3.65648e-07 1.94949e-07)
(0.00136243 -2.60403e-07 1.53949e-07)
(0.00135359 -1.60712e-07 1.18924e-07)
(0.00134692 -6.91552e-08 8.97935e-08)
(0.00134192 1.14287e-08 6.62686e-08)
(0.00133818 7.85964e-08 4.78267e-08)
(0.00133536 1.30722e-07 3.37719e-08)
(0.00133321 1.67266e-07 2.33484e-08)
(0.00133154 1.88865e-07 1.58042e-08)
(0.00133023 1.9712e-07 1.04624e-08)
(0.00132917 1.94354e-07 6.76681e-09)
(0.00132832 1.83243e-07 4.25698e-09)
(0.00132762 1.6647e-07 2.58857e-09)
(0.00132706 1.465e-07 1.50901e-09)
(0.0013266 1.2537e-07 8.26283e-10)
(0.00132623 1.04642e-07 4.08416e-10)
(0.00132594 8.53982e-08 1.61388e-10)
(0.00132571 6.82675e-08 2.93707e-11)
(0.00132554 5.3541e-08 -3.90616e-11)
(0.0013254 4.12453e-08 -6.73974e-11)
(0.0013253 3.12095e-08 -7.45421e-11)
(0.00132522 2.31824e-08 -6.56042e-11)
(0.00132517 1.6843e-08 -6.4404e-11)
(0.00132513 1.18978e-08 7.59919e-13)
(0.0013251 8.0144e-09 -1.99825e-10)
(0.0013251 5.05643e-09 -4.41492e-11)
(0.00132502 2.24892e-09 7.51065e-10)
(0.00559971 -1.98835e-06 0.000295428)
(0.00346803 -3.49884e-06 6.88266e-05)
(0.00234151 -4.23085e-06 1.55303e-05)
(0.00198714 -4.45025e-06 3.09758e-06)
(0.00180128 -4.39706e-06 1.36187e-06)
(0.0016871 -4.17925e-06 9.53098e-07)
(0.00160696 -3.87713e-06 7.67677e-07)
(0.0015466 -3.53873e-06 6.28908e-07)
(0.00149957 -3.19068e-06 5.19605e-07)
(0.0014622 -2.84543e-06 4.32996e-07)
(0.00143226 -2.50654e-06 3.61622e-07)
(0.00140829 -2.17329e-06 3.00598e-07)
(0.00138923 -1.84409e-06 2.47163e-07)
(0.00137426 -1.51896e-06 2.00093e-07)
(0.00136267 -1.20083e-06 1.59038e-07)
(0.0013538 -8.95595e-07 1.23959e-07)
(0.00134709 -6.11136e-07 9.47757e-08)
(0.00134206 -3.55864e-07 7.11893e-08)
(0.00133828 -1.37035e-07 5.26465e-08)
(0.00133543 4.04986e-08 3.84568e-08)
(0.00133325 1.74914e-07 2.78476e-08)
(0.00133155 2.6758e-07 2.00567e-08)
(0.00133022 3.22561e-07 1.44129e-08)
(0.00132915 3.45783e-07 1.03636e-08)
(0.00132829 3.44193e-07 7.4711e-09)
(0.00132759 3.2474e-07 5.40147e-09)
(0.00132702 2.93872e-07 3.91658e-09)
(0.00132657 2.56989e-07 2.84424e-09)
(0.0013262 2.18286e-07 2.06663e-09)
(0.00132591 1.80772e-07 1.50078e-09)
(0.00132569 1.46365e-07 1.08322e-09)
(0.00132552 1.16096e-07 7.79521e-10)
(0.00132538 9.03236e-08 5.52649e-10)
(0.00132528 6.89393e-08 3.90702e-10)
(0.00132521 5.15436e-08 2.74883e-10)
(0.00132516 3.75984e-08 1.80103e-10)
(0.00132512 2.65523e-08 1.77778e-10)
(0.00132509 1.77155e-08 -7.60042e-11)
(0.00132509 1.09269e-08 3.23065e-11)
(0.00132501 4.5383e-09 7.71273e-10)
(0.00559976 -3.34823e-06 0.000295428)
(0.00346827 -5.8682e-06 6.88239e-05)
(0.00234197 -7.02813e-06 1.55262e-05)
(0.00198775 -7.33512e-06 3.092e-06)
(0.00180197 -7.18419e-06 1.35473e-06)
(0.00168783 -6.76936e-06 9.44776e-07)
(0.00160771 -6.22521e-06 7.58438e-07)
(0.00154734 -5.63102e-06 6.18988e-07)
(0.0015003 -5.02916e-06 5.09245e-07)
(0.00146292 -4.43794e-06 4.22387e-07)
(0.00143296 -3.8614e-06 3.50913e-07)
(0.00140896 -3.29702e-06 2.8989e-07)
(0.00138988 -2.74166e-06 2.36526e-07)
(0.00137488 -2.19545e-06 1.89563e-07)
(0.00136324 -1.6638e-06 1.4865e-07)
(0.00135432 -1.15719e-06 1.13735e-07)
(0.00134755 -6.89412e-07 8.47421e-08)
(0.00134245 -2.74882e-07 6.13774e-08)
(0.00133861 7.41924e-08 4.31117e-08)
(0.00133569 3.49998e-07 2.92735e-08)
(0.00133345 5.5017e-07 1.91036e-08)
(0.0013317 6.77999e-07 1.18466e-08)
(0.00133032 7.41436e-07 6.82458e-09)
(0.00132922 7.51609e-07 3.46887e-09)
(0.00132833 7.21209e-07 1.32595e-09)
(0.00132761 6.62805e-07 3.56893e-11)
(0.00132703 5.87834e-07 -6.76573e-10)
(0.00132656 5.05725e-07 -1.00757e-09)
(0.00132619 4.23663e-07 -1.10199e-09)
(0.0013259 3.4662e-07 -1.06346e-09)
(0.00132568 2.77577e-07 -9.43877e-10)
(0.0013255 2.17946e-07 -7.87126e-10)
(0.00132537 1.67955e-07 -6.28625e-10)
(0.00132527 1.27051e-07 -4.88318e-10)
(0.0013252 9.42218e-08 -3.64895e-10)
(0.00132515 6.82514e-08 -2.79585e-10)
(0.00132511 4.79244e-08 -1.54293e-10)
(0.00132509 3.19237e-08 -3.09078e-10)
(0.00132509 1.9679e-08 -1.08073e-10)
(0.00132501 8.47285e-09 6.66243e-10)
(0.00559985 -4.82432e-06 0.00029543)
(0.00346868 -8.44035e-06 6.88259e-05)
(0.00234275 -1.00691e-05 1.55318e-05)
(0.00198874 -1.05005e-05 3.10053e-06)
(0.00180306 -1.02872e-05 1.3655e-06)
(0.00168895 -9.71209e-06 9.57555e-07)
(0.0016088 -8.96035e-06 7.72702e-07)
(0.00154838 -8.14004e-06 6.34211e-07)
(0.00150128 -7.3078e-06 5.24993e-07)
(0.00146384 -6.48742e-06 4.38332e-07)
(0.00143382 -5.68371e-06 3.66837e-07)
(0.00140977 -4.89324e-06 3.05682e-07)
(0.00139063 -4.11222e-06 2.52145e-07)
(0.00137556 -3.34182e-06 2.05036e-07)
(0.00136385 -2.59054e-06 1.64003e-07)
(0.00135485 -1.8738e-06 1.29007e-07)
(0.00134799 -1.21126e-06 9.99362e-08)
(0.0013428 -6.23045e-07 7.64512e-08)
(0.00133886 -1.25918e-07 5.79707e-08)
(0.00133586 2.69716e-07 4.37742e-08)
(0.00133354 5.61053e-07 3.30642e-08)
(0.00133172 7.53065e-07 2.50828e-08)
(0.00133029 8.56912e-07 1.91452e-08)
(0.00132915 8.87974e-07 1.47077e-08)
(0.00132823 8.63483e-07 1.13699e-08)
(0.0013275 8.00385e-07 8.82026e-09)
(0.00132692 7.1395e-07 6.84523e-09)
(0.00132646 6.16709e-07 5.29545e-09)
(0.0013261 5.18193e-07 4.07494e-09)
(0.00132582 4.24957e-07 3.10806e-09)
(0.00132561 3.40967e-07 2.34516e-09)
(0.00132544 2.68148e-07 1.75105e-09)
(0.00132533 2.0693e-07 1.29002e-09)
(0.00132524 1.56705e-07 9.34591e-10)
(0.00132517 1.1628e-07 6.74813e-10)
(0.00132513 8.41884e-08 4.61687e-10)
(0.0013251 5.89519e-08 3.844e-10)
(0.00132507 3.90105e-08 5.88472e-11)
(0.00132508 2.37135e-08 1.25114e-10)
(0.001325 9.91355e-09 7.59523e-10)
(0.00559996 -6.37476e-06 0.000295427)
(0.00346924 -1.10295e-05 6.88154e-05)
(0.00234381 -1.29729e-05 1.55188e-05)
(0.00199009 -1.33652e-05 3.08404e-06)
(0.00180456 -1.29505e-05 1.34568e-06)
(0.00169052 -1.21138e-05 9.35494e-07)
(0.00161038 -1.10888e-05 7.49243e-07)
(0.00154994 -1.00053e-05 6.1004e-07)
(0.0015028 -8.92581e-06 5.00654e-07)
(0.0014653 -7.87195e-06 4.14192e-07)
(0.00143523 -6.84331e-06 3.43108e-07)
(0.00141112 -5.83132e-06 2.82448e-07)
(0.00139192 -4.82932e-06 2.29405e-07)
(0.00137677 -3.83896e-06 1.8274e-07)
(0.00136497 -2.87262e-06 1.4208e-07)
(0.00135586 -1.95241e-06 1.07392e-07)
(0.0013489 -1.10609e-06 7.8601e-08)
(0.00134358 -3.61645e-07 5.54178e-08)
(0.00133951 2.58126e-07 3.73425e-08)