/*--------------------------------*- C++ -*----------------------------------*\
| =========                 |                                                 |
| \\      /  F ield         | OpenFOAM: The Open Source CFD Toolbox           |
|  \\    /   O peration     | Version:  5.0                                   |
|   \\  /    A nd           | Web:      www.OpenFOAM.org                      |
|    \\/     M anipulation  |                                                 |
\*---------------------------------------------------------------------------*/
FoamFile
{
    version     2.0;
    format      ascii;
    class       surfaceScalarField;
    location    "1800/porous";
    object      phi;
}
// * * * * * * * * * * * * * * * * * * * * * * * * * * * * * * * * * * * * * //

dimensions      [1 0 -1 0 0 0 0];

internalField   nonuniform List<scalar> 
104700
(
7.63469e-05
2.58379e-06
8.7736e-05
4.58797e-05
1.53403e-06
2.89331e-05
3.349e-05
1.32405e-06
1.10657e-05
2.82039e-05
1.09915e-06
4.18698e-06
2.50882e-05
9.25619e-07
2.19001e-06
2.29209e-05
7.95643e-07
1.37166e-06
2.12657e-05
6.9608e-07
9.59129e-07
1.99381e-05
6.17638e-07
7.10017e-07
1.88402e-05
5.53769e-07
5.44131e-07
1.79117e-05
5.00404e-07
4.28084e-07
1.71129e-05
4.54876e-07
3.43889e-07
1.64163e-05
4.15386e-07
2.81188e-07
1.58021e-05
3.80676e-07
2.33552e-07
1.52555e-05
3.49838e-07
1.96796e-07
1.47652e-05
3.22197e-07
1.68084e-07
1.43225e-05
2.97242e-07
1.45431e-07
1.39205e-05
2.74578e-07
1.27415e-07
1.35536e-05
2.53892e-07
1.12996e-07
1.32173e-05
2.34936e-07
1.0139e-07
1.29078e-05
2.17507e-07
9.20119e-08
1.2622e-05
2.01438e-07
8.44016e-08
1.23572e-05
1.86589e-07
7.82081e-08
1.21112e-05
1.72842e-07
7.31547e-08
1.1882e-05
1.60095e-07
6.90191e-08
1.16682e-05
1.48261e-07
6.56276e-08
1.14681e-05
1.37263e-07
6.28414e-08
1.12805e-05
1.27035e-07
6.05433e-08
1.11043e-05
1.17516e-07
5.86446e-08
1.09386e-05
1.0866e-07
5.70663e-08
1.07824e-05
1.00401e-07
5.57477e-08
1.06351e-05
9.27521e-08
5.46284e-08
1.04958e-05
8.55348e-08
5.36986e-08
1.03639e-05
7.90882e-08
5.28234e-08
1.02393e-05
7.23904e-08
5.22457e-08
1.01201e-05
6.7991e-08
5.12184e-08
1.00093e-05
5.90198e-08
5.17835e-08
9.89812e-06
6.28305e-08
4.83075e-08
9.80283e-06
3.51733e-08
6.01241e-08
9.70019e-06
7.88518e-08
2.3784e-08
-2.61502e-08
3.1748e-07
7.78123e-05
1.68802e-06
8.97501e-05
4.84263e-05
1.30124e-06
2.96188e-05
3.67847e-05
1.23874e-06
1.17269e-05
3.20157e-05
1.08313e-06
4.78499e-06
2.9323e-05
9.49937e-07
2.66843e-06
2.74966e-05
8.41375e-07
1.78063e-06
2.61194e-05
7.5101e-07
1.32234e-06
2.50213e-05
6.75267e-07
1.04048e-06
2.41151e-05
6.10633e-07
8.49259e-07
2.33484e-05
5.54653e-07
7.1252e-07
2.26869e-05
5.05546e-07
6.10777e-07
2.21076e-05
4.62015e-07
5.32744e-07
2.15937e-05
4.23087e-07
4.7141e-07
2.11333e-05
3.88025e-07
4.22202e-07
2.07173e-05
3.56253e-07
3.82025e-07
2.03385e-05
3.27318e-07
3.48722e-07
1.99914e-05
3.00858e-07
3.20742e-07
1.96718e-05
2.76578e-07
2.9695e-07
1.9376e-05
2.54237e-07
2.765e-07
1.91011e-05
2.33635e-07
2.58748e-07
1.88448e-05
2.14602e-07
2.43198e-07
1.86049e-05
1.96993e-07
2.29461e-07
1.83798e-05
1.80685e-07
2.17234e-07
1.81681e-05
1.65571e-07
2.06269e-07
1.79684e-05
1.51555e-07
1.96371e-07
1.77797e-05
1.38554e-07
1.8738e-07
1.76011e-05
1.26496e-07
1.79166e-07
1.74317e-05
1.15311e-07
1.71618e-07
1.72708e-05
1.04951e-07
1.64648e-07
1.71176e-05
9.53427e-08
1.58178e-07
1.69717e-05
8.64983e-08
1.52151e-07
1.68326e-05
7.82269e-08
1.46493e-07
1.66996e-05
7.08895e-08
1.41209e-07
1.65724e-05
6.3373e-08
1.36138e-07
1.64504e-05
5.84772e-08
1.31574e-07
1.63343e-05
4.83591e-08
1.26776e-07
1.62201e-05
5.36495e-08
1.2338e-07
1.61164e-05
1.75072e-08
1.21348e-07
1.60075e-05
8.74848e-08
1.00244e-07
-1.09215e-07
3.45236e-07
7.76222e-05
1.22991e-06
8.95025e-05
4.84082e-05
1.23644e-06
2.92788e-05
3.69389e-05
1.20918e-06
1.14989e-05
3.23082e-05
1.07743e-06
4.63645e-06
2.97455e-05
9.49173e-07
2.56345e-06
2.80398e-05
8.39594e-07
1.70742e-06
2.67759e-05
7.46495e-07
1.26841e-06
2.5785e-05
6.68119e-07
9.98028e-07
2.49806e-05
6.01613e-07
8.13427e-07
2.43105e-05
5.44572e-07
6.80248e-07
2.37408e-05
4.95077e-07
5.80161e-07
2.32485e-05
4.51651e-07
5.02615e-07
2.28174e-05
4.13161e-07
4.41067e-07
2.24354e-05
3.78739e-07
3.91248e-07
2.20937e-05
3.47712e-07
3.50267e-07
2.17854e-05
3.19556e-07
3.16088e-07
2.15051e-05
2.93859e-07
2.87251e-07
2.12487e-05
2.70294e-07
2.62671e-07
2.10128e-05
2.48599e-07
2.41534e-07
2.07947e-05
2.28562e-07
2.23214e-07
2.05921e-05
2.10009e-07
2.07223e-07
2.04031e-05
1.92797e-07
1.93172e-07
2.02262e-05
1.76804e-07
1.80756e-07
2.00601e-05
1.61928e-07
1.69724e-07
1.99037e-05
1.48082e-07
1.59872e-07
1.97561e-05
1.35189e-07
1.51032e-07
1.96163e-05
1.23186e-07
1.43063e-07
1.94838e-05
1.12013e-07
1.3585e-07
1.93578e-05
1.0163e-07
1.29295e-07
1.92378e-05
9.19724e-08
1.2331e-07
1.91235e-05
8.30633e-08
1.17834e-07
1.90142e-05
7.47223e-08
1.12787e-07
1.89096e-05
6.73162e-08
1.08159e-07
1.88094e-05
5.97589e-08
1.038e-07
1.87131e-05
5.48053e-08
9.99583e-08
1.86208e-05
4.47863e-08
9.58659e-08
1.85309e-05
4.98748e-08
9.36507e-08
1.84463e-05
1.41904e-08
8.80064e-08
1.83602e-05
8.49636e-08
8.85933e-08
-1.22904e-07
1.98502e-07
7.73814e-05
8.69141e-07
8.96461e-05
4.81319e-05
1.03757e-06
2.94483e-05
3.66931e-05
1.04579e-06
1.16023e-05
3.21097e-05
9.57493e-07
4.70331e-06
2.95979e-05
8.57848e-07
2.60315e-06
2.79412e-05
7.66352e-07
1.72993e-06
2.67235e-05
6.85063e-07
1.27908e-06
2.57762e-05
6.14509e-07
1.00093e-06
2.50129e-05
5.53423e-07
8.11466e-07
2.43818e-05
5.00329e-07
6.75354e-07
2.38494e-05
4.53871e-07
5.7361e-07
2.33929e-05
4.12902e-07
4.9523e-07
2.29962e-05
3.76493e-07
4.33366e-07
2.26475e-05
3.43895e-07
3.83546e-07
2.2338e-05
3.14512e-07
3.42738e-07
2.20609e-05
2.87866e-07
3.08818e-07
2.18109e-05
2.63575e-07
2.80265e-07
2.15839e-05
2.41328e-07
2.55957e-07
2.13766e-05
2.20878e-07
2.35058e-07
2.11862e-05
2.02019e-07
2.16928e-07
2.10105e-05
1.84584e-07
2.01076e-07
2.08478e-05
1.68434e-07
1.87111e-07
2.06964e-05
1.5345e-07
1.74728e-07
2.05551e-05
1.39536e-07
1.63681e-07
2.04228e-05
1.26606e-07
1.53771e-07
2.02986e-05
1.14587e-07
1.44833e-07
2.01816e-05
1.03419e-07
1.36734e-07
2.00712e-05
9.30458e-08
1.29362e-07
1.99668e-05
8.34312e-08
1.22625e-07
1.98678e-05
7.45172e-08
1.1644e-07
1.97738e-05
6.63282e-08
1.10748e-07
1.96843e-05
5.86998e-08
1.05478e-07
1.95991e-05
5.19854e-08
1.00615e-07
1.95176e-05
4.51843e-08
9.60324e-08
1.94396e-05
4.0879e-08
9.1915e-08
1.93647e-05
3.20768e-08
8.76183e-08
1.92923e-05
3.71898e-08
8.50591e-08
1.92226e-05
6.71133e-09
7.72395e-08
1.91497e-05
7.00277e-08
8.78411e-08
-1.01098e-07
1.00618e-07
7.72584e-05
6.76336e-07
8.96011e-05
4.79939e-05
9.27346e-07
2.93747e-05
3.65735e-05
9.71905e-07
1.14944e-05
3.20109e-05
9.16792e-07
4.6033e-06
2.95174e-05
8.35223e-07
2.51607e-06
2.78758e-05
7.5205e-07
1.65594e-06
2.66708e-05
6.7422e-07
1.2158e-06
2.57347e-05
6.0465e-07
9.45996e-07
2.49817e-05
5.43508e-07
7.62925e-07
2.43603e-05
4.90044e-07
6.31637e-07
2.38374e-05
4.43242e-07
5.33522e-07
2.33904e-05
4.02096e-07
4.57869e-07
2.30031e-05
3.6571e-07
3.98065e-07
2.26638e-05
3.33326e-07
3.49815e-07
2.23638e-05
3.04314e-07
3.10217e-07
2.20963e-05
2.78162e-07
2.7725e-07
2.18559e-05
2.54452e-07
2.49463e-07
2.16386e-05
2.32846e-07
2.25791e-07
2.1441e-05
2.13067e-07
2.05436e-07
2.12603e-05
1.94894e-07
1.87789e-07
2.10944e-05
1.78141e-07
1.72378e-07
2.09413e-05
1.62658e-07
1.5883e-07
2.07996e-05
1.4832e-07
1.46849e-07
2.06679e-05
1.35021e-07
1.36198e-07
2.05452e-05
1.22674e-07
1.26683e-07
2.04304e-05
1.11203e-07
1.18143e-07
2.03229e-05
1.00548e-07
1.10448e-07
2.02218e-05
9.06527e-08
1.03486e-07
2.01266e-05
8.14823e-08
9.71661e-08
2.00367e-05
7.29833e-08
9.14091e-08
1.99517e-05
6.518e-08
8.61504e-08
1.98711e-05
5.79272e-08
8.13262e-08
1.97946e-05
5.15538e-08
7.69067e-08
1.97218e-05
4.5181e-08
7.27993e-08
1.96525e-05
4.1114e-08
6.90997e-08
1.95859e-05
3.33624e-08
6.53685e-08
1.95224e-05
3.75893e-08
6.30736e-08
1.94606e-05
1.34032e-08
5.50835e-08
1.93953e-05
6.37101e-08
7.1664e-08
-6.03301e-08
2.79894e-08
7.71839e-05
5.19234e-07
8.96399e-05
4.78783e-05
7.76906e-07
2.9456e-05
3.64421e-05
8.3619e-07
1.1572e-05
3.18787e-05
8.04959e-07
4.67516e-06
2.93914e-05
7.43187e-07
2.57942e-06
2.77584e-05
6.74627e-07
1.71039e-06
2.65629e-05
6.07811e-07
1.26191e-06
2.56361e-05
5.46582e-07
9.84848e-07
2.48919e-05
4.91929e-07
7.95748e-07
2.42788e-05
4.43663e-07
6.59541e-07
2.37634e-05
4.01152e-07
5.57445e-07
2.33233e-05
3.63639e-07
4.78583e-07
2.29424e-05
3.30399e-07
4.16183e-07
2.26091e-05
3.00787e-07
3.65826e-07
2.23147e-05
2.74252e-07
3.24502e-07
2.20524e-05
2.50337e-07
2.90105e-07
2.18171e-05
2.28666e-07
2.61121e-07
2.16046e-05
2.08929e-07
2.36432e-07
2.14116e-05
1.90874e-07
2.152e-07
2.12354e-05
1.74296e-07
1.96786e-07
2.10738e-05
1.59025e-07
1.80692e-07
2.0925e-05
1.44922e-07
1.66529e-07
2.07875e-05
1.31871e-07
1.53986e-07
2.06599e-05
1.19774e-07
1.42814e-07
2.05412e-05
1.08552e-07
1.32812e-07
2.04305e-05
9.81366e-08
1.23812e-07
2.03269e-05
8.84706e-08
1.15679e-07
2.02297e-05
7.95055e-08
1.08299e-07
2.01384e-05
7.12099e-08
1.01578e-07
2.00524e-05
6.35382e-08
9.54324e-08
1.99713e-05
5.65158e-08
8.97971e-08
1.98946e-05
5.00203e-08
8.46115e-08
1.98219e-05
4.43505e-08
7.98338e-08
1.9753e-05
3.87715e-08
7.53995e-08
1.96875e-05
3.52732e-08
7.1321e-08
1.96245e-05
2.89711e-08
6.73553e-08
1.9565e-05
3.26505e-08
6.44795e-08
1.95072e-05
1.51061e-08
5.60718e-08
1.94428e-05
5.42322e-08
7.38566e-08
-2.79128e-08
2.86587e-09
7.71344e-05
4.18799e-07
8.96327e-05
4.78011e-05
6.65806e-07
2.94444e-05
3.63597e-05
7.38728e-07
1.15389e-05
3.18013e-05
7.28504e-07
4.63483e-06
2.93215e-05
6.84088e-07
2.53887e-06
2.76961e-05
6.27792e-07
1.67223e-06
2.65073e-05
5.69486e-07
1.22714e-06
2.55861e-05
5.14088e-07
9.53663e-07
2.48466e-05
4.63518e-07
7.6797e-07
2.42372e-05
4.18245e-07
6.34799e-07
2.3725e-05
3.78059e-07
5.3532e-07
2.32875e-05
3.42468e-07
4.58663e-07
2.29089e-05
3.10906e-07
3.98102e-07
2.25776e-05
2.82818e-07
3.4926e-07
2.22849e-05
2.57707e-07
3.09187e-07
2.20243e-05
2.35143e-07
2.7582e-07
2.17905e-05
2.14762e-07
2.47684e-07
2.15795e-05
1.96262e-07
2.237e-07
2.13879e-05
1.79393e-07
2.03056e-07
2.12131e-05
1.6395e-07
1.85138e-07
2.10529e-05
1.49762e-07
1.69466e-07
2.09055e-05
1.36689e-07
1.55667e-07
2.07693e-05
1.24615e-07
1.43444e-07
2.06431e-05
1.13443e-07
1.32556e-07
2.05257e-05
1.03093e-07
1.2281e-07
2.04163e-05
9.34965e-08
1.14047e-07
2.0314e-05
8.45995e-08
1.06134e-07
2.02182e-05
7.63538e-08
9.89618e-08
2.01283e-05
6.87304e-08
9.2439e-08
2.00436e-05
6.16878e-08
8.64864e-08
1.99639e-05
5.52492e-08
8.10394e-08
1.98885e-05
4.93151e-08
7.60402e-08
1.98173e-05
4.41477e-08
7.14386e-08
1.97497e-05
3.91545e-08
6.72011e-08
1.96857e-05
3.59917e-08
6.3269e-08
1.96243e-05
3.08358e-08
5.95764e-08
1.95666e-05
3.36852e-08
5.66976e-08
1.95115e-05
2.13889e-08
4.87276e-08
1.94491e-05
5.03104e-08
6.63282e-08
-1.96971e-09
-1.65615e-08
7.71072e-05
3.33323e-07
8.9645e-05
4.77479e-05
5.50838e-07
2.94742e-05
3.62918e-05
6.23614e-07
1.15713e-05
3.17276e-05
6.24066e-07
4.66859e-06
2.92469e-05
5.91962e-07
2.57284e-06
2.76232e-05
5.46644e-07
1.70482e-06
2.64375e-05
4.97718e-07
1.25747e-06
2.55201e-05
4.50165e-07
9.81379e-07
2.47843e-05
4.06178e-07
7.93048e-07
2.41787e-05
3.66494e-07
6.57388e-07
2.367e-05
3.31118e-07
5.5565e-07
2.32357e-05
2.99725e-07
4.7699e-07
2.28601e-05
2.71867e-07
4.14685e-07
2.25315e-05
2.47081e-07
3.64338e-07
2.22413e-05
2.24938e-07
3.22968e-07
2.19829e-05
2.0506e-07
2.8849e-07
2.17511e-05
1.87122e-07
2.59401e-07
2.15419e-05
1.70856e-07
2.34593e-07
2.13521e-05
1.56037e-07
2.13236e-07
2.11788e-05
1.42481e-07
1.94698e-07
2.10201e-05
1.30035e-07
1.7848e-07
2.0874e-05
1.18574e-07
1.64199e-07
2.07391e-05
1.07994e-07
1.51544e-07
2.0614e-05
9.82102e-08
1.40268e-07
2.04978e-05
8.91499e-08
1.30166e-07
2.03895e-05
8.07546e-08
1.21076e-07
2.02882e-05
7.29763e-08
1.12861e-07
2.01934e-05
6.57739e-08
1.05404e-07
2.01044e-05
5.91226e-08
9.86129e-08
2.00207e-05
5.29895e-08
9.24056e-08
1.99418e-05
4.73979e-08
8.67149e-08
1.98674e-05
4.22705e-08
8.14816e-08
1.97971e-05
3.78332e-08
7.66501e-08
1.97304e-05
3.36305e-08
7.22044e-08
1.96674e-05
3.10067e-08
6.80256e-08
1.96069e-05
2.70766e-08
6.41881e-08
1.95502e-05
2.94755e-08
6.09102e-08
1.94972e-05
2.15149e-08
5.29459e-08
1.94344e-05
4.33728e-08
6.96908e-08
1.17037e-08
-1.89306e-08
7.70866e-05
2.69007e-07
8.96444e-05
4.77072e-05
4.56066e-07
2.94742e-05
3.62416e-05
5.26899e-07
1.15623e-05
3.16757e-05
5.36106e-07
4.65387e-06
2.91969e-05
5.15227e-07
2.55554e-06
2.75768e-05
4.80367e-07
1.68639e-06
2.63951e-05
4.40407e-07
1.23897e-06
2.54816e-05
4.00232e-07
9.63465e-07
2.47494e-05
3.62255e-07
7.76107e-07
2.41468e-05
3.27491e-07
6.41601e-07
2.36407e-05
2.96198e-07
5.41064e-07
2.32086e-05
2.68254e-07
4.63576e-07
2.28347e-05
2.43365e-07
4.02365e-07
2.25076e-05
2.21179e-07
3.53014e-07
2.22186e-05
2.01349e-07
3.12538e-07
2.19613e-05
1.83553e-07
2.78851e-07
2.17304e-05
1.67514e-07
2.50456e-07
2.15221e-05
1.52989e-07
2.26258e-07
2.13329e-05
1.39779e-07
2.05435e-07
2.11603e-05
1.27716e-07
1.87362e-07
2.10021e-05
1.16661e-07
1.71555e-07
2.08565e-05
1.06497e-07
1.57633e-07
2.07221e-05
9.71294e-08
1.45298e-07
2.05975e-05
8.84779e-08
1.34305e-07
2.04818e-05
8.04769e-08
1.24459e-07
2.03738e-05
7.30712e-08
1.15599e-07
2.0273e-05
6.62165e-08
1.07593e-07
2.01786e-05
5.98761e-08
1.00329e-07
2.009e-05
5.40269e-08
9.37175e-08
2.00066e-05
4.86413e-08
8.76763e-08
1.99281e-05
4.37387e-08
8.21415e-08
1.98541e-05
3.92611e-08
7.70603e-08
1.97842e-05
3.53966e-08
7.23672e-08
1.97179e-05
3.1805e-08
6.80688e-08
1.96554e-05
2.95447e-08
6.40001e-08
1.95956e-05
2.64993e-08
6.03525e-08
1.95397e-05
2.83303e-08
5.70891e-08
1.94884e-05
2.32611e-08
4.95323e-08
1.94268e-05
3.91919e-08
6.57431e-08
2.0196e-08
-2.54814e-08
7.7075e-05
2.11937e-07
8.96488e-05
4.76803e-05
3.65208e-07
2.94855e-05
3.62044e-05
4.27616e-07
1.15751e-05
3.16333e-05
4.39349e-07
4.66786e-06
2.91524e-05
4.25255e-07
2.57086e-06
2.75322e-05
3.98263e-07
1.70232e-06
2.63516e-05
3.66073e-07
1.25491e-06
2.54398e-05
3.33062e-07
9.79004e-07
2.47096e-05
3.01508e-07
7.9096e-07
2.4109e-05
2.72444e-07
6.55608e-07
2.36049e-05
2.46202e-07
5.54153e-07
2.31747e-05
2.22743e-07
4.75737e-07
2.28025e-05
2.01853e-07
4.13628e-07
2.2477e-05
1.83251e-07
3.63432e-07
2.21896e-05
1.66647e-07
3.22178e-07
2.19336e-05
1.51769e-07
2.87782e-07
2.17039e-05
1.38379e-07
2.58751e-07
2.14967e-05
1.26271e-07
2.33982e-07
2.13085e-05
1.15273e-07
2.12651e-07
2.11369e-05
1.05239e-07
1.94124e-07
2.09796e-05
9.60516e-08
1.77914e-07
2.08348e-05
8.76104e-08
1.63634e-07
2.07011e-05
7.98343e-08
1.50978e-07
2.05773e-05
7.26562e-08
1.39697e-07
2.04621e-05
6.60202e-08
1.29591e-07
2.03548e-05
5.98807e-08
1.20495e-07
2.02546e-05
5.42006e-08
1.12275e-07
2.01607e-05
4.89501e-08
1.04814e-07
2.00726e-05
4.41107e-08
9.80194e-08
1.99898e-05
3.96618e-08
9.18117e-08
1.99118e-05
3.56208e-08
8.61172e-08
1.98382e-05
3.19475e-08
8.08879e-08
1.97687e-05
2.8795e-08
7.60495e-08
1.9703e-05
2.59207e-08
7.16223e-08
1.9641e-05
2.41388e-08
6.74059e-08
1.95819e-05
2.19449e-08
6.36678e-08
1.95266e-05
2.34637e-08
6.01686e-08
1.94766e-05
2.05525e-08
5.26392e-08
1.9415e-05
3.25168e-08
6.83393e-08
2.16988e-08
-2.46893e-08
7.70659e-05
1.63594e-07
8.96492e-05
4.76591e-05
2.84859e-07
2.94871e-05
3.61757e-05
3.3775e-07
1.15733e-05
3.16013e-05
3.50611e-07
4.66307e-06
2.91199e-05
3.4239e-07
2.56427e-06
2.75008e-05
3.22914e-07
1.69442e-06
2.63223e-05
2.98448e-07
1.2462e-06
2.54128e-05
2.72677e-07
9.69888e-07
2.46849e-05
2.47617e-07
7.81771e-07
2.40865e-05
2.24259e-07
6.46581e-07
2.35843e-05
2.0299e-07
5.45445e-07
2.31557e-05
1.8386e-07
4.67441e-07
2.2785e-05
1.66751e-07
4.05796e-07
2.24607e-05
1.51471e-07
3.56081e-07
2.21743e-05
1.37805e-07
3.15299e-07
2.19191e-05
1.25548e-07
2.81361e-07
2.16902e-05
1.14511e-07
2.52756e-07
2.14836e-05
1.04531e-07
2.28382e-07
2.1296e-05
9.5468e-08
2.07411e-07
2.11248e-05
8.72056e-08
1.89213e-07
2.09679e-05
7.9645e-08
1.73298e-07
2.08235e-05
7.27048e-08
1.59285e-07
2.06902e-05
6.6317e-08
1.46867e-07
2.05666e-05
6.04255e-08
1.35801e-07
2.04518e-05
5.49836e-08
1.25891e-07
2.03447e-05
4.99528e-08
1.16972e-07
2.02447e-05
4.53026e-08
1.08911e-07
2.0151e-05
4.10075e-08
1.01597e-07
2.00632e-05
3.70521e-08
9.49361e-08
1.99806e-05
3.34203e-08
8.88502e-08
1.99028e-05
3.01263e-08
8.32701e-08
1.98294e-05
2.71417e-08
7.81481e-08
1.97602e-05
2.45854e-08
7.34084e-08
1.96948e-05
2.229e-08
6.90814e-08
1.96331e-05
2.08577e-08
6.49433e-08
1.95745e-05
1.925e-08
6.13276e-08
1.95197e-05
2.037e-08
5.78512e-08
1.9471e-05
1.87098e-08
5.05762e-08
1.94103e-05
2.72158e-08
6.59941e-08
2.10381e-08
-2.80325e-08
7.70605e-05
1.18922e-07
8.96509e-05
4.76453e-05
2.08343e-07
2.94917e-05
3.61555e-05
2.4902e-07
1.15785e-05
3.15776e-05
2.59885e-07
4.66868e-06
2.90944e-05
2.54857e-07
2.5707e-06
2.74749e-05
2.40971e-07
1.7015e-06
2.62966e-05
2.22998e-07
1.25368e-06
2.53879e-05
2.038e-07
9.77573e-07
2.46611e-05
1.8499e-07
7.89472e-07
2.40638e-05
1.67388e-07
6.54152e-07
2.35627e-05
1.51334e-07
5.52776e-07
2.31352e-05
1.36892e-07
4.7446e-07
2.27655e-05
1.23987e-07
4.12455e-07
2.24421e-05
1.12479e-07
3.62362e-07
2.21565e-05
1.02205e-07
3.21201e-07
2.19022e-05
9.30071e-08
2.86889e-07
2.1674e-05
8.47402e-08
2.57929e-07
2.14681e-05
7.72777e-08
2.33222e-07
2.12811e-05
7.05111e-08
2.11943e-07
2.11105e-05
6.43492e-08
1.93461e-07
2.09541e-05
5.87161e-08
1.77288e-07
2.08102e-05
5.35494e-08
1.6304e-07
2.06773e-05
4.87967e-08
1.50408e-07
2.05542e-05
4.44148e-08
1.39149e-07
2.04397e-05
4.03692e-08
1.29064e-07
2.03331e-05
3.66306e-08
1.19986e-07
2.02334e-05
3.31755e-08
1.11781e-07
2.01401e-05
2.99861e-08
1.04335e-07
2.00526e-05
2.7051e-08
9.75527e-08
1.99703e-05
2.43586e-08
9.13561e-08
1.98928e-05
2.19207e-08
8.56737e-08
1.98198e-05
1.97198e-08
8.04568e-08
1.97509e-05
1.78436e-08
7.56256e-08
1.96858e-05
1.61827e-08
7.12181e-08
1.96245e-05
1.51625e-08
6.6989e-08
1.95663e-05
1.41014e-08
6.3315e-08
1.9512e-05
1.49639e-08
5.97041e-08
1.94641e-05
1.4172e-08
5.24307e-08
1.94035e-05
2.02236e-08
6.75875e-08
1.69798e-08
-2.73295e-08
7.70565e-05
7.79162e-08
8.96512e-05
4.7635e-05
1.3693e-07
2.94929e-05
3.61408e-05
1.64867e-07
1.15784e-05
3.15604e-05
1.72952e-07
4.66733e-06
2.90763e-05
1.70478e-07
2.56847e-06
2.74569e-05
1.61877e-07
1.6985e-06
2.62795e-05
1.50343e-07
1.25007e-06
2.53719e-05
1.37812e-07
9.73536e-07
2.46463e-05
1.25401e-07
7.85172e-07
2.40503e-05
1.13697e-07
6.49725e-07
2.35503e-05
1.02959e-07
5.48337e-07
2.31239e-05
9.32552e-08
4.70094e-07
2.27551e-05
8.45519e-08
4.08223e-07
2.24325e-05
7.67674e-08
3.58303e-07
2.21476e-05
6.98023e-08
3.17339e-07
2.18938e-05
6.35555e-08
2.83234e-07
2.16661e-05
5.79338e-08
2.54484e-07
2.14606e-05
5.28544e-08
2.29981e-07
2.12739e-05
4.82461e-08
2.08897e-07
2.11036e-05
4.40484e-08
1.90598e-07
2.09475e-05
4.02112e-08
1.74596e-07
2.08039e-05
3.66921e-08
1.60504e-07
2.06712e-05
3.3456e-08
1.48018e-07
2.05483e-05
3.04739e-08
1.36891e-07
2.0434e-05
2.77215e-08
1.26924e-07
2.03275e-05
2.51791e-08
1.17956e-07
2.0228e-05
2.28314e-08
1.09849e-07
2.01348e-05
2.06649e-08
1.02493e-07
2.00474e-05
1.86726e-08
9.57943e-08
1.99652e-05
1.68464e-08
8.96736e-08
1.98879e-05
1.51942e-08
8.40598e-08
1.9815e-05
1.37056e-08
7.89076e-08
1.97463e-05
1.24376e-08
7.41352e-08
1.96813e-05
1.1325e-08
6.97874e-08
1.96203e-05
1.06364e-08
6.56038e-08
1.95624e-05
9.9623e-09
6.19985e-08
1.95085e-05
1.05051e-08
5.84076e-08
1.94612e-05
1.01261e-08
5.12678e-08
1.94013e-05
1.38816e-08
6.62859e-08
1.2189e-08
-2.91408e-08
7.70544e-05
3.84665e-08
8.96517e-05
4.76291e-05
6.76209e-08
2.94946e-05
3.61318e-05
8.17628e-08
1.15803e-05
3.15496e-05
8.58605e-08
4.66932e-06
2.90645e-05
8.47276e-08
2.5708e-06
2.74448e-05
8.04676e-08
1.70115e-06
2.62675e-05
7.46981e-08
1.25298e-06
2.53602e-05
6.84022e-08
9.76629e-07
2.46351e-05
6.21539e-08
7.88373e-07
2.40396e-05
5.6259e-08
6.52967e-07
2.35401e-05
5.08537e-08
5.51556e-07
2.31142e-05
4.59752e-08
4.73244e-07
2.27459e-05
4.1608e-08
4.11266e-07
2.24237e-05
3.77102e-08
3.61215e-07
2.21392e-05
3.42303e-08
3.20106e-07
2.18858e-05
3.11165e-08
2.8585e-07
2.16584e-05
2.83199e-08
2.56947e-07
2.14532e-05
2.5798e-08
2.32295e-07
2.12668e-05
2.35137e-08
2.11067e-07
2.10968e-05
2.14362e-08
1.92634e-07
2.0941e-05
1.95389e-08
1.76503e-07
2.07976e-05
1.78005e-08
1.62294e-07
2.06651e-05
1.6203e-08
1.49702e-07
2.05424e-05
1.47318e-08
1.38476e-07
2.04283e-05
1.33746e-08
1.28421e-07
2.0322e-05
1.21216e-08
1.1937e-07
2.02227e-05
1.09647e-08
1.11189e-07
2.01297e-05
9.89778e-09
1.03765e-07
2.00425e-05
8.91713e-09
9.70041e-08
1.99605e-05
8.01897e-09
9.08254e-08
1.98833e-05
7.20759e-09
8.5159e-08
1.98105e-05
6.47789e-09
7.99603e-08
1.9742e-05
5.85874e-09
7.51417e-08
1.96772e-05
5.31998e-09
7.07536e-08
1.96164e-05
4.99213e-09
6.65256e-08
1.95587e-05
4.6838e-09
6.28899e-08
1.9505e-05
4.96916e-09
5.92363e-08
1.94582e-05
4.85271e-09
5.20928e-08
1.93984e-05
6.72536e-09
6.69885e-08
6.05579e-09
-2.88634e-08
7.70533e-05
4.87529e-14
8.96518e-05
4.76259e-05
2.87113e-13
2.9495e-05
3.61273e-05
2.05862e-13
1.15804e-05
3.15442e-05
2.53846e-13
4.66896e-06
2.90587e-05
1.62419e-13
2.57016e-06
2.7439e-05
1.5186e-13
1.70023e-06
2.62619e-05
1.2206e-13
1.25181e-06
2.5355e-05
1.81813e-13
9.75263e-07
2.46303e-05
1.21223e-13
7.86864e-07
2.40352e-05
-2.09407e-14
6.51361e-07
2.35362e-05
-2.62056e-14
5.49898e-07
2.31106e-05
4.16195e-14
4.71566e-07
2.27426e-05
-3.50473e-14
4.09599e-07
2.24207e-05
1.23613e-13
3.59577e-07
2.21364e-05
-5.67704e-14
3.18511e-07
2.18832e-05
-1.2404e-14
2.84307e-07
2.16561e-05
-2.02007e-14
2.55463e-07
2.1451e-05
5.22376e-14
2.30872e-07
2.12648e-05
1.18689e-13
2.09705e-07
2.10949e-05
8.83069e-14
1.91331e-07
2.09392e-05
2.1941e-15
1.75261e-07
2.07959e-05
3.0935e-14
1.61106e-07
2.06635e-05
-1.27534e-13
1.48564e-07
2.05409e-05
-2.42789e-14
1.37387e-07
2.04269e-05
1.53877e-13
1.27376e-07
2.03206e-05
-2.79517e-14
1.18367e-07
2.02214e-05
-4.53532e-14
1.10225e-07
2.01284e-05
-9.58246e-15
1.02838e-07
2.00412e-05
-1.09546e-13
9.61105e-08
1.99593e-05
6.99735e-14
8.99644e-08
1.98822e-05
5.99622e-14
8.43259e-08
1.98095e-05
5.64622e-14
7.91538e-08
1.9741e-05
4.95672e-14
7.43613e-08
1.96763e-05
-8.10198e-14
6.99995e-08
1.96155e-05
-1.83131e-13
6.57935e-08
1.9558e-05
1.14614e-13
6.21846e-08
1.95044e-05
-1.03362e-14
5.85441e-08
1.94578e-05
-5.9571e-14
5.14512e-08
1.93983e-05
-1.39346e-13
6.62742e-08
3.10057e-14
-2.97571e-08
7.70533e-05
-3.84661e-08
8.96518e-05
4.76259e-05
-6.76207e-08
2.9495e-05
3.61273e-05
-8.17628e-08
1.15804e-05
3.15442e-05
-8.58602e-08
4.66896e-06
2.90587e-05
-8.47272e-08
2.57016e-06
2.7439e-05
-8.04674e-08
1.70023e-06
2.62619e-05
-7.4698e-08
1.25181e-06
2.5355e-05
-6.84021e-08
9.75264e-07
2.46303e-05
-6.21541e-08
7.86864e-07
2.40352e-05
-5.62592e-08
6.51361e-07
2.35362e-05
-5.08537e-08
5.49898e-07
2.31106e-05
-4.59751e-08
4.71566e-07
2.27426e-05
-4.16079e-08
4.09598e-07
2.24207e-05
-3.77102e-08
3.59578e-07
2.21364e-05
-3.42303e-08
3.18512e-07
2.18832e-05
-3.11164e-08
2.84307e-07
2.16561e-05
-2.83201e-08
2.55463e-07
2.1451e-05
-2.5798e-08
2.30871e-07
2.12648e-05
-2.35138e-08
2.09705e-07
2.10949e-05
-2.14361e-08
1.91331e-07
2.09392e-05
-1.95389e-08
1.7526e-07
2.07959e-05
-1.78008e-08
1.61107e-07
2.06635e-05
-1.62031e-08
1.48564e-07
2.05409e-05
-1.47318e-08
1.37388e-07
2.04269e-05
-1.33746e-08
1.27376e-07
2.03206e-05
-1.21217e-08
1.18367e-07
2.02214e-05
-1.09646e-08
1.10226e-07
2.01284e-05
-9.89771e-09
1.02838e-07
2.00412e-05
-8.91704e-09
9.61109e-08
1.99593e-05
-8.01899e-09
8.99644e-08
1.98822e-05
-7.20753e-09
8.43271e-08
1.98095e-05
-6.478e-09
7.91551e-08
1.9741e-05
-5.85865e-09
7.43616e-08
1.96763e-05
-5.31978e-09
6.99999e-08
1.96155e-05
-4.99184e-09
6.57938e-08
1.9558e-05
-4.68398e-09
6.21858e-08
1.95044e-05
-4.96939e-09
5.85442e-08
1.94578e-05
-4.85276e-09
5.14515e-08
1.93983e-05
-6.72525e-09
6.62747e-08
-6.05575e-09
-2.97567e-08
7.70544e-05
-7.7916e-08
8.96517e-05
4.76291e-05
-1.3693e-07
2.94946e-05
3.61318e-05
-1.64867e-07
1.15803e-05
3.15496e-05
-1.72952e-07
4.66932e-06
2.90645e-05
-1.70478e-07
2.5708e-06
2.74448e-05
-1.61877e-07
1.70115e-06
2.62675e-05
-1.50343e-07
1.25298e-06
2.53602e-05
-1.37812e-07
9.76629e-07
2.46351e-05
-1.25401e-07
7.88373e-07
2.40396e-05
-1.13697e-07
6.52966e-07
2.35401e-05
-1.02959e-07
5.51556e-07
2.31142e-05
-9.32553e-08
4.73244e-07
2.27459e-05
-8.45521e-08
4.11267e-07
2.24237e-05
-7.67676e-08
3.61217e-07
2.21392e-05
-6.98023e-08
3.20106e-07
2.18858e-05
-6.35555e-08
2.8585e-07
2.16584e-05
-5.79337e-08
2.56946e-07
2.14532e-05
-5.28542e-08
2.32295e-07
2.12668e-05
-4.8246e-08
2.11067e-07
2.10968e-05
-4.40483e-08
1.92633e-07
2.0941e-05
-4.02112e-08
1.76504e-07
2.07976e-05
-3.6692e-08
1.62295e-07
2.06651e-05
-3.3456e-08
1.49703e-07
2.05424e-05
-3.04738e-08
1.38477e-07
2.04283e-05
-2.77217e-08
1.28421e-07
2.0322e-05
-2.51792e-08
1.1937e-07
2.02227e-05
-2.28315e-08
1.1119e-07
2.01297e-05
-2.0665e-08
1.03765e-07
2.00425e-05
-1.86724e-08
9.70039e-08
1.99605e-05
-1.68463e-08
9.08265e-08
1.98833e-05
-1.51943e-08
8.51598e-08
1.98105e-05
-1.37056e-08
7.99594e-08
1.9742e-05
-1.24375e-08
7.51417e-08
1.96772e-05
-1.13249e-08
7.07532e-08
1.96164e-05
-1.06368e-08
6.65255e-08
1.95587e-05
-9.96245e-09
6.28896e-08
1.9505e-05
-1.05052e-08
5.92356e-08
1.94582e-05
-1.01263e-08
5.20924e-08
1.93984e-05
-1.38816e-08
6.69873e-08
-1.2189e-08
-2.88627e-08
7.70565e-05
-1.18922e-07
8.96512e-05
4.7635e-05
-2.08343e-07
2.94929e-05
3.61408e-05
-2.4902e-07
1.15784e-05
3.15604e-05
-2.59885e-07
4.66733e-06
2.90763e-05
-2.54858e-07
2.56847e-06
2.74569e-05
-2.40971e-07
1.6985e-06
2.62795e-05
-2.22998e-07
1.25007e-06
2.53719e-05
-2.038e-07
9.73536e-07
2.46463e-05
-1.8499e-07
7.85171e-07
2.40503e-05
-1.67388e-07
6.49725e-07
2.35503e-05
-1.51334e-07
5.48336e-07
2.31239e-05
-1.36892e-07
4.70094e-07
2.27551e-05
-1.23987e-07
4.08223e-07
2.24325e-05
-1.12479e-07
3.58302e-07
2.21476e-05
-1.02205e-07
3.17339e-07
2.18938e-05
-9.30072e-08
2.83234e-07
2.16661e-05
-8.47405e-08
2.54484e-07
2.14606e-05
-7.7278e-08
2.29981e-07
2.12739e-05
-7.05112e-08
2.08897e-07
2.11036e-05
-6.43491e-08
1.90598e-07
2.09475e-05
-5.87161e-08
1.74596e-07
2.08039e-05
-5.35493e-08
1.60504e-07
2.06712e-05
-4.87965e-08
1.48019e-07
2.05483e-05
-4.44149e-08
1.36892e-07
2.0434e-05
-4.03691e-08
1.26925e-07
2.03275e-05
-3.66306e-08
1.17955e-07
2.0228e-05
-3.31758e-08
1.0985e-07
2.01348e-05
-2.9986e-08
1.02494e-07
2.00474e-05
-2.7051e-08
9.57943e-08
1.99652e-05
-2.43587e-08
8.96729e-08
1.98879e-05
-2.19209e-08
8.40588e-08
1.9815e-05
-1.97201e-08
7.89076e-08
1.97463e-05
-1.7844e-08
7.41351e-08
1.96813e-05
-1.61831e-08
6.97877e-08
1.96203e-05
-1.51627e-08
6.56033e-08
1.95624e-05
-1.41014e-08
6.19988e-08
1.95085e-05
-1.49639e-08
5.8408e-08
1.94612e-05
-1.4172e-08
5.12683e-08
1.94013e-05
-2.0224e-08
6.62864e-08
-1.69802e-08
-2.91401e-08
7.70605e-05
-1.63594e-07
8.96509e-05
4.76453e-05
-2.84858e-07
2.94917e-05
3.61555e-05
-3.3775e-07
1.15785e-05
3.15776e-05
-3.50611e-07
4.66868e-06
2.90944e-05
-3.4239e-07
2.5707e-06
2.74749e-05
-3.22914e-07
1.7015e-06
2.62966e-05
-2.98448e-07
1.25368e-06
2.53879e-05
-2.72676e-07
9.77573e-07
2.46611e-05
-2.47616e-07
7.89471e-07
2.40638e-05
-2.24259e-07
6.54151e-07
2.35627e-05
-2.0299e-07
5.52775e-07
2.31352e-05
-1.8386e-07
4.7446e-07
2.27655e-05
-1.66751e-07
4.12455e-07
2.24421e-05
-1.51471e-07
3.62362e-07
2.21565e-05
-1.37805e-07
3.21201e-07
2.19022e-05
-1.25548e-07
2.86889e-07
2.1674e-05
-1.1451e-07
2.5793e-07
2.14681e-05
-1.04531e-07
2.33222e-07
2.12811e-05
-9.54682e-08
2.11944e-07
2.11105e-05
-8.72057e-08
1.93462e-07
2.09541e-05
-7.96452e-08
1.77287e-07
2.08102e-05
-7.27048e-08
1.63039e-07
2.06773e-05
-6.6317e-08
1.50409e-07
2.05542e-05
-6.04254e-08
1.3915e-07
2.04397e-05
-5.49835e-08
1.29065e-07
2.03331e-05
-4.99528e-08
1.19987e-07
2.02334e-05
-4.53023e-08
1.1178e-07
2.01401e-05
-4.10075e-08
1.04335e-07
2.00526e-05
-3.70524e-08
9.75533e-08
1.99703e-05
-3.34206e-08
9.13562e-08
1.98928e-05
-3.01262e-08
8.56724e-08
1.98198e-05
-2.71416e-08
8.04564e-08
1.97509e-05
-2.45853e-08
7.56244e-08
1.96858e-05
-2.229e-08
7.12184e-08
1.96245e-05
-2.08576e-08
6.69881e-08
1.95663e-05
-1.92502e-08
6.33157e-08
1.9512e-05
-2.03701e-08
5.97039e-08
1.94641e-05
-1.87103e-08
5.24306e-08
1.94035e-05
-2.7216e-08
6.75876e-08
-2.10381e-08
-2.73294e-08
7.70659e-05
-2.11936e-07
8.96492e-05
4.76591e-05
-3.65207e-07
2.94871e-05
3.61757e-05
-4.27615e-07
1.15733e-05
3.16013e-05
-4.39349e-07
4.66307e-06
2.91199e-05
-4.25255e-07
2.56427e-06
2.75008e-05
-3.98263e-07
1.69442e-06
2.63223e-05
-3.66073e-07
1.2462e-06
2.54128e-05
-3.33062e-07
9.69889e-07
2.46849e-05
-3.01508e-07
7.81772e-07
2.40865e-05
-2.72444e-07
6.46581e-07
2.35843e-05
-2.46202e-07
5.45445e-07
2.31557e-05
-2.22743e-07
4.67442e-07
2.2785e-05
-2.01853e-07
4.05796e-07
2.24607e-05
-1.83251e-07
3.56081e-07
2.21743e-05
-1.66646e-07
3.15302e-07
2.19191e-05
-1.51769e-07
2.8136e-07
2.16902e-05
-1.38379e-07
2.52756e-07
2.14836e-05
-1.26272e-07
2.28383e-07
2.1296e-05
-1.15273e-07
2.07411e-07
2.11248e-05
-1.0524e-07
1.89212e-07
2.09679e-05
-9.60516e-08
1.73298e-07
2.08235e-05
-8.76102e-08
1.59284e-07
2.06902e-05
-7.98344e-08
1.46867e-07
2.05666e-05
-7.26562e-08
1.35801e-07
2.04518e-05
-6.60204e-08
1.25891e-07
2.03447e-05
-5.98808e-08
1.16972e-07
2.02447e-05
-5.42006e-08
1.08911e-07
2.0151e-05
-4.89502e-08
1.01598e-07
2.00632e-05
-4.41108e-08
9.49354e-08
1.99806e-05
-3.96622e-08
8.88507e-08
1.99028e-05
-3.56213e-08
8.32698e-08
1.98294e-05
-3.19478e-08
7.81488e-08
1.97602e-05
-2.87953e-08
7.34083e-08
1.96948e-05
-2.59207e-08
6.90822e-08
1.96331e-05
-2.41387e-08
6.49428e-08
1.95745e-05
-2.19448e-08
6.13273e-08
1.95197e-05
-2.34638e-08
5.78509e-08
1.9471e-05
-2.05524e-08
5.05762e-08
1.94103e-05
-3.2517e-08
6.59932e-08
-2.1699e-08
-2.80322e-08
7.7075e-05
-2.69007e-07
8.96488e-05
4.76803e-05
-4.56066e-07
2.94855e-05
3.62044e-05
-5.26899e-07
1.15751e-05
3.16333e-05
-5.36106e-07
4.66786e-06
2.91524e-05
-5.15226e-07
2.57086e-06
2.75322e-05
-4.80367e-07
1.70232e-06
2.63516e-05
-4.40406e-07
1.25491e-06
2.54398e-05
-4.00232e-07
9.79004e-07
2.47096e-05
-3.62255e-07
7.9096e-07
2.4109e-05
-3.27491e-07
6.55608e-07
2.36049e-05
-2.96198e-07
5.54153e-07
2.31747e-05
-2.68254e-07
4.75738e-07
2.28025e-05
-2.43365e-07
4.13628e-07
2.2477e-05
-2.21179e-07
3.63432e-07
2.21896e-05
-2.01349e-07
3.22178e-07