/*--------------------------------*- C++ -*----------------------------------*\
| =========                 |                                                 |
| \\      /  F ield         | OpenFOAM: The Open Source CFD Toolbox           |
|  \\    /   O peration     | Version:  5.0                                   |
|   \\  /    A nd           | Web:      www.OpenFOAM.org                      |
|    \\/     M anipulation  |                                                 |
\*---------------------------------------------------------------------------*/
FoamFile
{
    version     2.0;
    format      ascii;
    class       volScalarField;
    location    "1800/porous";
    object      T;
}
// * * * * * * * * * * * * * * * * * * * * * * * * * * * * * * * * * * * * * //

dimensions      [0 0 0 1 0 0 0];

internalField   nonuniform List<scalar> 
36000
(
400
400
400
400
399.999
399.588
399.213
398.862
398.527
398.204
397.89
397.583
397.28
396.982
396.688
396.397
396.109
395.824
395.541
395.26
394.981
394.704
394.428
394.152
393.875
393.599
393.325
393.053
392.784
392.518
392.257
392.003
391.758
391.526
391.311
391.832
392.185
392.453
392.672
392.858
400
400
400
400
399.999
399.637
399.308
399.001
398.71
398.433
398.166
397.906
397.653
397.405
397.162
396.923
396.688
396.456
396.227
396
395.776
395.554
395.334
395.114
394.894
394.675
394.457
394.242
394.029
393.82
393.615
393.415
393.222
393.039
392.866
393.209
393.451
393.637
393.785
393.916
400
400
400
400
399.999
399.644
399.323
399.026
398.746
398.481
398.227
397.982
397.744
397.514
397.289
397.069
396.854
396.643
396.435
396.232
396.031
395.833
395.637
395.442
395.247
395.054
394.862
394.673
394.487
394.305
394.127
393.954
393.789
393.632
393.484
393.8
394.027
394.202
394.342
394.463
400
400
400
400
399.999
399.644
399.323
399.027
398.749
398.485
398.233
397.991
397.757
397.531
397.31
397.096
396.886
396.681
396.48
396.283
396.09
395.9
395.712
395.525
395.339
395.153
394.97
394.79
394.613
394.44
394.271
394.108
393.953
393.805
393.666
393.977
394.202
394.375
394.517
394.636
400
400
400
400
399.999
399.644
399.324
399.027
398.75
398.486
398.235
397.994
397.76
397.535
397.316
397.102
396.894
396.691
396.492
396.297
396.106
395.918
395.733
395.548
395.364
395.182
395.001
394.824
394.649
394.479
394.314
394.154
394.002
393.857
393.722
394.031
394.255
394.429
394.57
394.69
400
400
400
400
399.999
399.644
399.323
399.027
398.749
398.485
398.233
397.992
397.759
397.533
397.314
397.101
396.893
396.69
396.492
396.298
396.108
395.921
395.736
395.552
395.368
395.186
395.007
394.83
394.656
394.486
394.322
394.163
394.012
393.868
393.734
394.043
394.267
394.44
394.582
394.702
400
400
400
400
399.999
399.644
399.324
399.028
398.75
398.486
398.235
397.993
397.76
397.535
397.316
397.103
396.896
396.693
396.495
396.302
396.112
395.926
395.741
395.557
395.374
395.192
395.013
394.836
394.662
394.493
394.329
394.171
394.019
393.876
393.741
394.05
394.274
394.447
394.589
394.709
400
400
400
400
399.999
399.644
399.324
399.028
398.751
398.487
398.236
397.994
397.761
397.536
397.318
397.105
396.898
396.695
396.498
396.305
396.115
395.929
395.744
395.56
395.376
395.195
395.015
394.839
394.665
394.496
394.332
394.174
394.022
393.879
393.744
394.053
394.277
394.45
394.592
394.712
400
400
400
400
399.999
399.645
399.325
399.03
398.753
398.49
398.239
397.997
397.765
397.54
397.322
397.11
396.903
396.701
396.504
396.311
396.122
395.936
395.751
395.566
395.383
395.201
395.022
394.846
394.672
394.503
394.339
394.181
394.029
393.886
393.75
394.059
394.283
394.456
394.597
394.717
400
400
400
400
399.999
399.645
399.326
399.031
398.755
398.492
398.241
398
397.768
397.544
397.326
397.114
396.908
396.706
396.509
396.317
396.127
395.941
395.755
395.571
395.388
395.206
395.027
394.85
394.677
394.508
394.344
394.186
394.034
393.89
393.755
394.063
394.287
394.46
394.601
394.721
400
400
400
400
399.999
399.646
399.328
399.033
398.757
398.495
398.245
398.004
397.772
397.548
397.331
397.12
396.914
396.713
396.516
396.323
396.133
395.946
395.761
395.577
395.394
395.213
395.034
394.857
394.684
394.515
394.351
394.193
394.041
393.897
393.761
394.069
394.293
394.466
394.607
394.727
400
400
400
400
399.999
399.646
399.328
399.035
398.759
398.498
398.248
398.007
397.776
397.552
397.335
397.124
396.919
396.718
396.521
396.327
396.136
395.949
395.764
395.58
395.398
395.217
395.038
394.862
394.689
394.52
394.355
394.197
394.045
393.9
393.764
394.073
394.296
394.469
394.61
394.73
400
400
400
400
399.999
399.647
399.33
399.037
398.762
398.501
398.251
398.011
397.779
397.555
397.338
397.128
396.922
396.722
396.524
396.329
396.138
395.951
395.766
395.583
395.401
395.22
395.042
394.866
394.693
394.524
394.36
394.201
394.049
393.904
393.767
394.076
394.299
394.472
394.613
394.733
400
400
400
400
399.999
399.648
399.331
399.039
398.764
398.503
398.253
398.013
397.781
397.557
397.34
397.129
396.924
396.723
396.525
396.33
396.138
395.95
395.766
395.583
395.401
395.221
395.043
394.868
394.695
394.526
394.362
394.203
394.05
393.905
393.768
394.076
394.3
394.473
394.614
394.734
400
400
400
400
399.999
399.648
399.332
399.04
398.766
398.505
398.255
398.014
397.782
397.558
397.34
397.13
396.924
396.723
396.525
396.33
396.138
395.95
395.765
395.583
395.402
395.223
395.045
394.87
394.697
394.528
394.363
394.204
394.051
393.905
393.768
394.077
394.3
394.473
394.615
394.734
400
400
400
400
399.999
399.649
399.334
399.042
398.768
398.507
398.257
398.016
397.783
397.559
397.341
397.13
396.924
396.723
396.525
396.329
396.138
395.95
395.766
395.584
395.403
395.224
395.047
394.871
394.699
394.53
394.365
394.205
394.051
393.904
393.766
394.075
394.299
394.472
394.614
394.733
400
400
400
400
399.999
399.65
399.334
399.043
398.769
398.508
398.258
398.016
397.784
397.558
397.34
397.128
396.923
396.722
396.524
396.329
396.138
395.95
395.766
395.584
395.404
395.225
395.048
394.872
394.7
394.53
394.365
394.204
394.05
393.902
393.764
394.073
394.297
394.471
394.612
394.732
400
400
400
400
399.999
399.65
399.335
399.044
398.77
398.509
398.258
398.017
397.784
397.558
397.339
397.127
396.922
396.721
396.524
396.329
396.138
395.951
395.767
395.585
395.405
395.226
395.049
394.873
394.7
394.53
394.364
394.203
394.048
393.9
393.761
394.071
394.295
394.469
394.61
394.73
400
400
400
400
399.999
399.65
399.336
399.045
398.771
398.509
398.258
398.017
397.783
397.557
397.338
397.126
396.92
396.719
396.522
396.329
396.138
395.951
395.767
395.584
395.403
395.224
395.047
394.871
394.698
394.528
394.361
394.199
394.043
393.895
393.755
394.065
394.29
394.464
394.606
394.726
400
400
400
400
399.999
399.651
399.336
399.045
398.771
398.51
398.259
398.017
397.783
397.557
397.337
397.125
396.918
396.718
396.522
396.329
396.139
395.951
395.766
395.583
395.402
395.222
395.044
394.868
394.695
394.524
394.357
394.194
394.038
393.889
393.749
394.06
394.285
394.459
394.601
394.721
400
400
400
400
399.999
399.651
399.337
399.046
398.771
398.51
398.258
398.016
397.782
397.556
397.336
397.123
396.917
396.716
396.52
396.327
396.137
395.949
395.763
395.579
395.397
395.217
395.039
394.863
394.689
394.517
394.35
394.186
394.03
393.88
393.739
394.051
394.276
394.451
394.593
394.714
400
400
400
400
399.999
399.651
399.337
399.046
398.772
398.51
398.259
398.017
397.783
397.556
397.336
397.123
396.916
396.716
396.52
396.327
396.137
395.948
395.761
395.576
395.394
395.213
395.035
394.858
394.684
394.512
394.344
394.18
394.023
393.873
393.732
394.044
394.27
394.445
394.588
394.709
400
400
400
400
399.999
399.651
399.338
399.047
398.772
398.51
398.259
398.016
397.782
397.555
397.335
397.122
396.915
396.714
396.518
396.325
396.134
395.944
395.757
395.572
395.389
395.208
395.029
394.852
394.677
394.505
394.336
394.173
394.014
393.864
393.723
394.036
394.262
394.438
394.581
394.702
400
400
400
400
399.999
399.652
399.339
399.048
398.773
398.512
398.26
398.018
397.783
397.556
397.336
397.123
396.916
396.716
396.519
396.325
396.134
395.944
395.756
395.571
395.387
395.206
395.027
394.85
394.675
394.502
394.333
394.169
394.011
393.86
393.718
394.031
394.258
394.434
394.577
394.698
400
400
400
400
399.999
399.652
399.339
399.048
398.774
398.512
398.26
398.017
397.783
397.556
397.336
397.122
396.915
396.714
396.517
396.323
396.13
395.94
395.752
395.566
395.383
395.201
395.022
394.844
394.669
394.496
394.327
394.162
394.003
393.851
393.709
394.023
394.25
394.426
394.569
394.691
400
400
400
400
399.999
399.653
399.341
399.05
398.776
398.514
398.262
398.02
397.785
397.558
397.338
397.124
396.917
396.715
396.517
396.322
396.129
395.938
395.75
395.563
395.379
395.197
395.017
394.839
394.663
394.489
394.319
394.153
393.993
393.84
393.696
394.011
394.238
394.414
394.557
394.678
400
400
400
400
399.999
399.653
399.341
399.049
398.775
398.513
398.261
398.017
397.782
397.553
397.332
397.117
396.908
396.705
396.505
396.307
396.112
395.919
395.729
395.54
395.354
395.169
394.986
394.806
394.627
394.451
394.278
394.109
393.945
393.789
393.642
393.958
394.185
394.361
394.504
394.625
400
400
400
400
399.999
399.654
399.341
399.048
398.772
398.507
398.253
398.006
397.767
397.535
397.309
397.088
396.874
396.664
396.457
396.253
396.051
395.851
395.653
395.457
395.263
395.07
394.879
394.69
394.502
394.318
394.135
393.957
393.783
393.617
393.46
393.782
394.011
394.188
394.33
394.452
400
400
400
400
399.999
399.647
399.325
399.023
398.735
398.458
398.19
397.929
397.674
397.424
397.18
396.94
396.705
396.474
396.246
396.02
395.795
395.571
395.349
395.129
394.91
394.692
394.475
394.26
394.046
393.835
393.626
393.42
393.219
393.026
392.842
393.191
393.435
393.623
393.773
393.906
400
400
400
400
399.999
399.599
399.232
398.885
398.552
398.229
397.914
397.604
397.299
396.999
396.703
396.412
396.124
395.84
395.558
395.278
394.998
394.72
394.443
394.167
393.892
393.618
393.345
393.074
392.804
392.537
392.272
392.01
391.755
391.509
391.279
391.808
392.165
392.436
392.657
392.844
400
400
400
400
399.999
399.781
399.532
399.264
398.985
398.702
398.416
398.129
397.843
397.558
397.274
396.992
396.71
396.43
396.152
395.875
395.599
395.325
395.051
394.777
394.503
394.23
393.957
393.685
393.416
393.15
392.887
392.629
392.378
392.138
391.911
392.157
392.393
392.603
392.789
392.952
400
400
400
400
400
399.812
399.602
399.377
399.145
398.91
398.673
398.438
398.203
397.971
397.74
397.512
397.286
397.061
396.839
396.619
396.4
396.183
395.967
395.752
395.537
395.323
395.11
394.898
394.688
394.48
394.276
394.075
393.88
393.692
393.511
393.625
393.747
393.864
393.971
394.072
400
400
400
400
400
399.817
399.613
399.397
399.175
398.951
398.728
398.507
398.288
398.072
397.859
397.65
397.443
397.24
397.039
396.841
396.645
396.452
396.261
396.07
395.881
395.692
395.505
395.319
395.136
394.955
394.778
394.604
394.436
394.274
394.119
394.221
394.33
394.436
394.534
394.625
400
400
400
400
400
399.817
399.613
399.397
399.177
398.954
398.733
398.515
398.299
398.087
397.879
397.675
397.473
397.276
397.081
396.89
396.701
396.515
396.331
396.149
395.967
395.787
395.608
395.431
395.257
395.085
394.917
394.753
394.595
394.442
394.296
394.397
394.505
394.61
394.707
394.798
400
400
400
400
400
399.817
399.613
399.398
399.177
398.956
398.735
398.517
398.302
398.091
397.884
397.681
397.481
397.284
397.092
396.902
396.716
396.532
396.351
396.171
395.992
395.814
395.638
395.464
395.292
395.123
394.958
394.797
394.642
394.493
394.35
394.451
394.558
394.663
394.761
394.852
400
400
400
400
400
399.817
399.613
399.397
399.176
398.954
398.733
398.514
398.3
398.089
397.881
397.678
397.479
397.283
397.09
396.901
396.716
396.533
396.352
396.173
395.994
395.817
395.642
395.468
395.297
395.13
394.965
394.805
394.651
394.502
394.36
394.461
394.569
394.674
394.772
394.863
400
400
400
400
400
399.817
399.613
399.397
399.177
398.954
398.734
398.515
398.301
398.09
397.883
397.68
397.481
397.285
397.093
396.904
396.719
396.537
396.357
396.177
395.999
395.822
395.647
395.474
395.303
395.135
394.971
394.812
394.658
394.509
394.368
394.468
394.576
394.681
394.779
394.871
400
400
400
400
400
399.817
399.613
399.397
399.177
398.954
398.733
398.515
398.301
398.09
397.883
397.68
397.481
397.286
397.094
396.906
396.721
396.539
396.358
396.179
396.001
395.824
395.649
395.476
395.305
395.137
394.973
394.814
394.66
394.511
394.37
394.47
394.578
394.683
394.781
394.873
400
400
400
400
400
399.817
399.613
399.398
399.178
398.956
398.735
398.517
398.303
398.093
397.886
397.684
397.485
397.29
397.099
396.911
396.726
396.544
396.364
396.185
396.006
395.83
395.654
395.482
395.311
395.144
394.98
394.82
394.666
394.518
394.376
394.476
394.584
394.689
394.787
394.878
400
400
400
400
400
399.817
399.614
399.399
399.179
398.957
398.737
398.519
398.305
398.095
397.889
397.687
397.488
397.294
397.103
396.915
396.73
396.548
396.367
396.188
396.01
395.833
395.658
395.485
395.315
395.148
394.984
394.824
394.67
394.521
394.379
394.48
394.588
394.692
394.791
394.882
400
400
400
400
400
399.818
399.615
399.4
399.18
398.959
398.739
398.522
398.308
398.099
397.893
397.691
397.493
397.299
397.108
396.921
396.736
396.553
396.373
396.194
396.016
395.839
395.664
395.492
395.321
395.154
394.99
394.831
394.676
394.528
394.385
394.486
394.593
394.698
394.796
394.887
400
400
400
400
400
399.818
399.615
399.401
399.182
398.961
398.741
398.524
398.31
398.101
397.895
397.694
397.496
397.302
397.112
396.924
396.738
396.556
396.375
396.196
396.018
395.842
395.667
395.495
395.325
395.157
394.994
394.834
394.68
394.531
394.388
394.489
394.596
394.701
394.799
394.89
400
400
400
400
400
399.818
399.616
399.402
399.183
398.963
398.743
398.527
398.313
398.104
397.898
397.697
397.5
397.306
397.115
396.926
396.741
396.558
396.377
396.198
396.021
395.845
395.671
395.498
395.328
395.161
394.997
394.838
394.683
394.534
394.391
394.492
394.6
394.704
394.802
394.893
400
400
400
400
400
399.819
399.617
399.403
399.185
398.964
398.745
398.528
398.315
398.105
397.9
397.698
397.501
397.307
397.116
396.927
396.741
396.557
396.377
396.198
396.021
395.846
395.672
395.5
395.33
395.163
394.999
394.839
394.685
394.535
394.392
394.493
394.6
394.705
394.803
394.894
400
400
400
400
400
399.819
399.617
399.404
399.186
398.966
398.746
398.529
398.316
398.106
397.9
397.699
397.502
397.307
397.116
396.927
396.741
396.557
396.377
396.199
396.022
395.847
395.673
395.501
395.331
395.164
395.001
394.841
394.686
394.536
394.393
394.493
394.601
394.705
394.804
394.895
400
400
400
400
400
399.819
399.618
399.405
399.187
398.967
398.748
398.531
398.317
398.107
397.901
397.699
397.502
397.307
397.116
396.927
396.741
396.557
396.377
396.199
396.023
395.848
395.674
395.503
395.333
395.166
395.002
394.842
394.686
394.536
394.392
394.492
394.6
394.705
394.803
394.894
400
400
400
400
400
399.819
399.618
399.406
399.188
398.968
398.749
398.531
398.317
398.107
397.901
397.699
397.501
397.307
397.115
396.926
396.74
396.557
396.377
396.199
396.023
395.848
395.675
395.503
395.334
395.166
395.002
394.842
394.685
394.535
394.39
394.491
394.599
394.703
394.801
394.893
400
400
400
400
400
399.82
399.619
399.407
399.189
398.969
398.749
398.532
398.318
398.107
397.901
397.698
397.5
397.306
397.115
396.927
396.741
396.558
396.378
396.2
396.024
395.849
395.676
395.504
395.334
395.167
395.002
394.841
394.685
394.534
394.389
394.489
394.597
394.702
394.8
394.891
400
400
400
400
400
399.82
399.619
399.407
399.189
398.969
398.75
398.532
398.318
398.107
397.9
397.697
397.499
397.305
397.114
396.926
396.741
396.558
396.378
396.199
396.023
395.848
395.675
395.503
395.333
395.165
395
394.838
394.681
394.529
394.384
394.484
394.592
394.697
394.795
394.887
400
400
400
400
400
399.82
399.62
399.408
399.19
398.97
398.75
398.533
398.318
398.107
397.9
397.697
397.499
397.304
397.114
396.926
396.741
396.558
396.378
396.199
396.022
395.847
395.673
395.501
395.331
395.162
394.997
394.835
394.677
394.525
394.379
394.48
394.588
394.693
394.791
394.883
400
400
400
400
400
399.82
399.62
399.408
399.19
398.97
398.75
398.533
398.318
398.106
397.899
397.696
397.497
397.303
397.112
396.925
396.74
396.557
396.376
396.196
396.019
395.843
395.669
395.496
395.326
395.157
394.991
394.828
394.67
394.518
394.371
394.472
394.58
394.685
394.784
394.875
400
400
400
400
400
399.82
399.62
399.409
399.191
398.971
398.751
398.533
398.319
398.107
397.9
397.697
397.498
397.304
397.113
396.925
396.74
396.557
396.375
396.195
396.017
395.841
395.666
395.494
395.322
395.153
394.987
394.824
394.666
394.512
394.366
394.467
394.575
394.68
394.779
394.871
400
400
400
400
400
399.82
399.621
399.409
399.191
398.971
398.751
398.533
398.318
398.107
397.899
397.696
397.497
397.303
397.112
396.924
396.738
396.554
396.372
396.192
396.013
395.837
395.662
395.489
395.317
395.148
394.981
394.818
394.659
394.505
394.358
394.459
394.568
394.673
394.772
394.864
400
400
400
400
400
399.821
399.621
399.41
399.193
398.973
398.753
398.535
398.32
398.109
397.901
397.698
397.499
397.305
397.114
396.926
396.74
396.555
396.373
396.192
396.013
395.836
395.661
395.488
395.316
395.146
394.979
394.816
394.656
394.502
394.355
394.456
394.564
394.67
394.769
394.861
400
400
400
400
400
399.821
399.622
399.41
399.193
398.973
398.753
398.536
398.32
398.109
397.901
397.698
397.499
397.304
397.113
396.924
396.737
396.553
396.37
396.189
396.01
395.833
395.657
395.483
395.311
395.141
394.974
394.81
394.65
394.495
394.347
394.448
394.557
394.663
394.762
394.853
400
400
400
400
400
399.822
399.623
399.412
399.195
398.976
398.756
398.539
398.324
398.112
397.904
397.701
397.501
397.306
397.114
396.925
396.738
396.552
396.369
396.187
396.008
395.83
395.654
395.479
395.306
395.136
394.967
394.802
394.641
394.486
394.336
394.437
394.546
394.651
394.75
394.842
400
400
400
400
400
399.822
399.623
399.412
399.194
398.975
398.755
398.536
398.321
398.108
397.899
397.694
397.494
397.297
397.103
396.911
396.722
396.535
396.349
396.165
395.983
395.803
395.624
395.447
395.272
395.098
394.927
394.759
394.595
394.436
394.283
394.384
394.493
394.598
394.697
394.788
400
400
400
400
400
399.822
399.623
399.411
399.193
398.971
398.748
398.527
398.308
398.091
397.878
397.668
397.462
397.259
397.059
396.861
396.665
396.47
396.277
396.086
395.896
395.708
395.521
395.335
395.151
394.969
394.789
394.611
394.438
394.269
394.107
394.209
394.319
394.425
394.524
394.616
400
400
400
400
400
399.818
399.612
399.392
399.162
398.929
398.693
398.457
398.222
397.989
397.757
397.528
397.302
397.079
396.857
396.637
396.418
396.2
395.983
395.767
395.553
395.339
395.126
394.915
394.704
394.496
394.289
394.084
393.883
393.687
393.498
393.613
393.735
393.853
393.961
394.062
400
400
400
400
399.999
399.787
399.543
399.279
399.004
398.721
398.436
398.149
397.861
397.575
397.29
397.006
396.725
396.446
396.168
395.891
395.615
395.34
395.066
394.792
394.519
394.247
393.975
393.705
393.435
393.168
392.902
392.639
392.381
392.13
391.89
392.139
392.376
392.588
392.775
392.939
400
400
400
400
400
399.863
399.704
399.526
399.331
399.122
398.902
398.673
398.437
398.196
397.95
397.7
397.448
397.194
396.938
396.681
396.423
396.164
395.905
395.644
395.383
395.121
394.858
394.596
394.335
394.075
393.817
393.562
393.312
393.069
392.835
392.909
393.004
393.107
393.213
393.312
400
400
400
400
400
399.882
399.749
399.603
399.444
399.277
399.102
398.921
398.735
398.546
398.354
398.16
397.965
397.769
397.572
397.374
397.176
396.978
396.78
396.582
396.383
396.184
395.985
395.787
395.589
395.392
395.197
395.004
394.815
394.63
394.45
394.451
394.466
394.492
394.523
394.558
400
400
400
400
400
399.885
399.757
399.616
399.465
399.307
399.143
398.975
398.803
398.63
398.454
398.278
398.102
397.925
397.749
397.573
397.398
397.223
397.049
396.875
396.701
396.527
396.354
396.182
396.01
395.84
395.673
395.507
395.345
395.187
395.033
395.036
395.049
395.07
395.097
395.128
400
400
400
400
400
399.885
399.757
399.616
399.467
399.31
399.148
398.982
398.813
398.643
398.471
398.3
398.128
397.957
397.786
397.616
397.448
397.28
397.113
396.947
396.78
396.615
396.45
396.286
396.123
395.962
395.804
395.647
395.495
395.346
395.201
395.206
395.221
395.244
395.272
395.304
400
400
400
400
400
399.885
399.757
399.617
399.467
399.311
399.149
398.984
398.816
398.646
398.476
398.305
398.135
397.965
397.796
397.628
397.461
397.296
397.131
396.967
396.803
396.64
396.478
396.317
396.157
395.999
395.843
395.69
395.54
395.395
395.253
395.259
395.275
395.298
395.327
395.36
400
400
400
400
400
399.885
399.756
399.616
399.466
399.309
399.147
398.981
398.813
398.643
398.473
398.302
398.132
397.963
397.794
397.626
397.46
397.295
397.131
396.968
396.804
396.642
396.48
396.32
396.161
396.003
395.848
395.696
395.548
395.403
395.262
395.269
395.285
395.309
395.338
395.371
400
400
400
400
400
399.885
399.757
399.616
399.467
399.31
399.148
398.982
398.814
398.644
398.474
398.304
398.134
397.964
397.796
397.629
397.463
397.298
397.134
396.971
396.808
396.646
396.484
396.324
396.165
396.008
395.854
395.702
395.553
395.409
395.269
395.275
395.292
395.316
395.344
395.378
400
400
400
400
400
399.885
399.757
399.616
399.467
399.31
399.147
398.981
398.813
398.644
398.473
398.303
398.133
397.964
397.795
397.628
397.463
397.298
397.134
396.971
396.808
396.646
396.485
396.325
396.166
396.009
395.854
395.702
395.554
395.41
395.269
395.276
395.292
395.316
395.345
395.379
400
400
400
400
400
399.885
399.757
399.617
399.467
399.311
399.149
398.983
398.815
398.646
398.476
398.306
398.136
397.967
397.799
397.632
397.467
397.302
397.139
396.976
396.813
396.651
396.489
396.329
396.171
396.014
395.859
395.708
395.559
395.415
395.275
395.281
395.298
395.321
395.35
395.384
400
400
400
400
400
399.885
399.757
399.617
399.468
399.311
399.149
398.984
398.816
398.647
398.477
398.307
398.138
397.969
397.801
397.635
397.469
397.305
397.141
396.978
396.815
396.653
396.492
396.332
396.173
396.017
395.862
395.71
395.562
395.418
395.277
395.284
395.3
395.324
395.353
395.387
400
400
400
400
400
399.886
399.758
399.618
399.469
399.313
399.151
398.986
398.818
398.649
398.48
398.31
398.141
397.973
397.806
397.639
397.474
397.309
397.145
396.982
396.82
396.658
396.497
396.337
396.179
396.022
395.868
395.716
395.567
395.423
395.283
395.289
395.305
395.329
395.358
395.392
400
400
400
400
400
399.886
399.758
399.619
399.47
399.314
399.152
398.987
398.819
398.651
398.481
398.312
398.143
397.975
397.808
397.641
397.475
397.311
397.147
396.984
396.822
396.66
396.499
396.339
396.181
396.024
395.87
395.718
395.57
395.425
395.285
395.291
395.308
395.332
395.361
395.394
400
400
400
400
400
399.886
399.759
399.62
399.471
399.315
399.154
398.989
398.821
398.653
398.484
398.314
398.146
397.978
397.81
397.643
397.477
397.313
397.149
396.986
396.824
396.662
396.502
396.342
396.184
396.028
395.873
395.722
395.573
395.428
395.288
395.294
395.311
395.335
395.364
395.397
400
400
400
400
400
399.886
399.759
399.62
399.472
399.316
399.155
398.99
398.822
398.654
398.485
398.315
398.147
397.979
397.811
397.644
397.478
397.313
397.149
396.986
396.824
396.663
396.502
396.343
396.185
396.029
395.874
395.723
395.574
395.429
395.288
395.295
395.311
395.335
395.364
395.398
400
400
400
400
400
399.886
399.759
399.621
399.472
399.317
399.156
398.991
398.823
398.655
398.485
398.316
398.147
397.979
397.811
397.644
397.478
397.313
397.149
396.986
396.825
396.664
396.503
396.344
396.186
396.03
395.876
395.724
395.575
395.43
395.289
395.296
395.312
395.336
395.365
395.398
400
400
400
400
400
399.887
399.76
399.621
399.473
399.318
399.157
398.992
398.824
398.655
398.486
398.317
398.148
397.979
397.812
397.644
397.478
397.313
397.149
396.987
396.825
396.664
396.504
396.345
396.187
396.031
395.877
395.725
395.576
395.43
395.289
395.295
395.312
395.335
395.364
395.398
400
400
400
400
400
399.887
399.76
399.622
399.474
399.318
399.157
398.992
398.825
398.656
398.486
398.316
398.147
397.979
397.811
397.644
397.478
397.313
397.149
396.987
396.825
396.665
396.505
396.345
396.188
396.031
395.877
395.725
395.575
395.43
395.288
395.294
395.311
395.334
395.363
395.397
400
400
400
400
400
399.887
399.761
399.622
399.474
399.319
399.158
398.993
398.825
398.656
398.486
398.316
398.147
397.979
397.811
397.644
397.478
397.314
397.15
396.988
396.826
396.665
396.505
396.346
396.188
396.032
395.877
395.725
395.575
395.429
395.287
395.294
395.31
395.334
395.362
395.396
400
400
400
400
400
399.887
399.761
399.622
399.475
399.319
399.158
398.993
398.825
398.656
398.486
398.316
398.146
397.978
397.811
397.644
397.478
397.313
397.15
396.987
396.826
396.665
396.505
396.345
396.187
396.031
395.876
395.723
395.573
395.426
395.284
395.29
395.306
395.33
395.359
395.392
400
400
400
400
400
399.887
399.761
399.623
399.475
399.32
399.159
398.994
398.826
398.656
398.486
398.316
398.147
397.978
397.811
397.644
397.479
397.314
397.15
396.988
396.826
396.664
396.504
396.345
396.186
396.029
395.874
395.721
395.571
395.424
395.281
395.287
395.303
395.327
395.356
395.389
400
400
400
400
400
399.887
399.761
399.623
399.475
399.32
399.159
398.994
398.826
398.656
398.486
398.315
398.146
397.977
397.81
397.643
397.478
397.313
397.149
396.986
396.823
396.662
396.501
396.341
396.183
396.025
395.87
395.716
395.565
395.418
395.275
395.281
395.297
395.321
395.35
395.383
400
400
400
400
400
399.887
399.761
399.623
399.476
399.321
399.16
398.994
398.827
398.657
398.487
398.317
398.147
397.979
397.811
397.645
397.479
397.314
397.149
396.986
396.823
396.661
396.5
396.34
396.181
396.024
395.868
395.714
395.563
395.415
395.271
395.278
395.294
395.317
395.346
395.38
400
400
400
400
400
399.887
399.761
399.624
399.476
399.321
399.16
398.995
398.827
398.657
398.487
398.316
398.147
397.978
397.811
397.644
397.478
397.312
397.148
396.984
396.821
396.658
396.497
396.337
396.178
396.02
395.863
395.709
395.557
395.41
395.266
395.272
395.288
395.312
395.34
395.374
400
400
400
400
400
399.888
399.762
399.624
399.477
399.322
399.161
398.996
398.829
398.659
398.489
398.319
398.149
397.981
397.813
397.646
397.48
397.314
397.15
396.985
396.822
396.66
396.498
396.338
396.178
396.02
395.863
395.709
395.557
395.409
395.265
395.271
395.286
395.31
395.339
395.372
400
400
400
400
400
399.888
399.762
399.625
399.477
399.322
399.161
398.996
398.829
398.659
398.489
398.319
398.149
397.98
397.812
397.645
397.479
397.313
397.148
396.983
396.82
396.657
396.495
396.334
396.174
396.016
395.859
395.704
395.552
395.403
395.258
395.264
395.28
395.303
395.332
395.365
400
400
400
400
400
399.888
399.763
399.626
399.479
399.324
399.164
398.999
398.832
398.662
398.492
398.322
398.152
397.983
397.815
397.647
397.48
397.314
397.148
396.983
396.819
396.655
396.493
396.331
396.171
396.012
395.854
395.698
395.545
395.395
395.249
395.254
395.27
395.293
395.321
395.354
400
400
400
400
400
399.888
399.763
399.625
399.478
399.323
399.162
398.997
398.829
398.659
398.487
398.316
398.145
397.974
397.804
397.635
397.466
397.297
397.129
396.962
396.796
396.63
396.465
396.301
396.138
395.976
395.815
395.656
395.5
395.347
395.198
395.202
395.216
395.239
395.266
395.298
400
400
400
400
400
399.888
399.763
399.625
399.477
399.32
399.158
398.99
398.819
398.645
398.469
398.294
398.117
397.941
397.766
397.59
397.414
397.239
397.064
396.89
396.715
396.542
396.369
396.196
396.025
395.854
395.684
395.516
395.351
395.188
395.03
395.031
395.044
395.065
395.092
395.123
400
400
400
400
400
399.886
399.756
399.612
399.456
399.29
399.116
398.935
398.75
398.561
398.369
398.175
397.979
397.784
397.587
397.39
397.192
396.993
396.795
396.596
396.398
396.199
396
395.802
395.604
395.407
395.21
395.015
394.822
394.632
394.446
394.446
394.461
394.486
394.518
394.553
400
400
400
400
400
399.867
399.712
399.536
399.343
399.136
398.917
398.688
398.452
398.21
397.963
397.713
397.461
397.207
396.952
396.695
396.437
396.178
395.919
395.658
395.397
395.136
394.874
394.613
394.352
394.091
393.832
393.574
393.318
393.068
392.825
392.898
392.993
393.096
393.203
393.301
400
400
400
400
400
399.895
399.778
399.649
399.508
399.356
399.194
399.022
398.841
398.652
398.457
398.254
398.046
397.833
397.616
397.394
397.169
396.941
396.71
396.476
396.24
396.001
395.76
395.518
395.275
395.032
394.79
394.548
394.309
394.075
393.846
393.843
393.853
393.875
393.906
393.932
400
400
400
400
400
399.909
399.81
399.703
399.589
399.468
399.34
399.207
399.068
398.925
398.777
398.625
398.47
398.312
398.151
397.988
397.822
397.655
397.486
397.316
397.143
396.969
396.794
396.619
396.443
396.266
396.091
395.916
395.742
395.572
395.404
395.366
395.336
395.312
395.294
395.278
400
400
400
400
400
399.911
399.815
399.712
399.603
399.489
399.37
399.246
399.119
398.988
398.854
398.717
398.579
398.438
398.296
398.152
398.007
397.862
397.715
397.567
397.419
397.269
397.119
396.969
396.819
396.669
396.519
396.371
396.225
396.081
395.94
395.911
395.887
395.868
395.853
395.841
400
400
400
400
400
399.911
399.815
399.713
399.605
399.491
399.373
399.251
399.126
398.998
398.867
398.734
398.6
398.464
398.327
398.189
398.05
397.911
397.771
397.63
397.488
397.346
397.204
397.062
396.92
396.778
396.638
396.499
396.361
396.227
396.094
396.07
396.05
396.034
396.022
396.014
400
400
400
400
400
399.911
399.815
399.713
399.605
399.492
399.374
399.253
399.128
399.001
398.871
398.739
398.606
398.471
398.335
398.199
398.062
397.924
397.786
397.648
397.509
397.369
397.229
397.089
396.95
396.811
396.674
396.538
396.404
396.272
396.143
396.12
396.102
396.087
396.076
396.071
400
400
400
400
400
399.911
399.815
399.713
399.604
399.491
399.373
399.251
399.126
398.999
398.869
398.737
398.604
398.469
398.333
398.197
398.061
397.924
397.786
397.648
397.509
397.37
397.231
397.092
396.953
396.815
396.679
396.543
396.41
396.279
396.151
396.129
396.111
396.097
396.087
396.082
400
400
400
400
400
399.911
399.815
399.713
399.605
399.491
399.373
399.252
399.127
398.999
398.869
398.738
398.604
398.47
398.335
398.199
398.062
397.926
397.788
397.65
397.512
397.373
397.234
397.095
396.957
396.819
396.683
396.548
396.415
396.284
396.156
396.134
396.117
396.103
396.093
396.088
400
400
400
400
400
399.911
399.816
399.713
399.605
399.491
399.373
399.252
399.127
398.999
398.869
398.737
398.604
398.469
398.334
398.198
398.062
397.925
397.788
397.65
397.511
397.373
397.234
397.095
396.957
396.819
396.682
396.547
396.414
396.284
396.156
396.134