/*--------------------------------*- C++ -*----------------------------------*\
| =========                 |                                                 |
| \\      /  F ield         | OpenFOAM: The Open Source CFD Toolbox           |
|  \\    /   O peration     | Version:  5.0                                   |
|   \\  /    A nd           | Web:      www.OpenFOAM.org                      |
|    \\/     M anipulation  |                                                 |
\*---------------------------------------------------------------------------*/
FoamFile
{
    version     2.0;
    format      ascii;
    class       volScalarField;
    location    "1700/air";
    object      alphat;
}
// * * * * * * * * * * * * * * * * * * * * * * * * * * * * * * * * * * * * * //

dimensions      [1 -1 -1 0 0 0 0];

internalField   nonuniform List<scalar> 
243000
(
0.000168569
0.00017158
0.000168188
0.00016295
0.000156523
0.000149502
0.000142221
0.000134945
0.000127862
0.000121153
0.000114906
0.000109173
0.000103922
9.91989e-05
9.50107e-05
9.14666e-05
8.86692e-05
8.68451e-05
8.5889e-05
8.64742e-05
8.71999e-05
8.7772e-05
8.77292e-05
8.67164e-05
0.000382572
8.43474e-05
8.10055e-05
0.000353086
0.000321984
0.000372332
0.000733642
0.000776511
0.000785669
0.000783963
0.000775382
0.000762044
0.000745384
0.000726497
0.000706076
0.000684763
0.000662871
0.000640723
0.000618381
0.000596453
0.000575389
0.000555961
0.000538816
0.00052557
0.000517356
0.000512305
0.000508718
0.00050362
0.000494269
0.000479067
0.000460175
0.000429517
0.000400281
0.000367343
0.000332674
0.000337981
0.000790743
0.00083377
0.00084587
0.000845202
0.000836778
0.000823113
0.000805818
0.000786036
0.000764527
0.000742032
0.000718886
0.000695494
0.000672018
0.00064919
0.000627551
0.000607954
0.000591045
0.000578389
0.000570307
0.000565822
0.000562519
0.000557598
0.000548316
0.000532932
0.000511286
0.000483186
0.000449766
0.000409552
0.000369908
0.000351039
0.000815693
0.000860342
0.000875899
0.000878309
0.000872194
0.000860317
0.000844318
0.000825375
0.000804318
0.000781965
0.000758759
0.000735231
0.000711633
0.000688818
0.00066743
0.000648418
0.000632418
0.000620846
0.000613502
0.000609266
0.000605759
0.000600461
0.000590854
0.000575238
0.00055317
0.000524679
0.000490087
0.000447507
0.000405593
0.000375169
0.000819475
0.000864078
0.000885764
0.000892918
0.00089037
0.000881447
0.000867793
0.000850665
0.000830972
0.000809607
0.000787125
0.00076418
0.000741134
0.000718954
0.00069836
0.000680402
0.000665683
0.0006554
0.000648911
0.00064484
0.000640958
0.000635074
0.00062499
0.000609157
0.000587069
0.000558611
0.000524016
0.000481322
0.000438187
0.000404374
0.000809461
0.000854623
0.000881638
0.000894169
0.000896226
0.000890918
0.00088029
0.000865574
0.00084783
0.000828026
0.000806798
0.000784929
0.000762894
0.000741785
0.000722324
0.000705724
0.000692487
0.000683561
0.000677906
0.000673974
0.000669691
0.000663176
0.000652583
0.000636561
0.000614611
0.000586526
0.000552469
0.000510652
0.000467075
0.000429772
0.000788037
0.000835965
0.000868139
0.000885963
0.0008929
0.000891881
0.000884504
0.000872424
0.000857073
0.000839252
0.00081967
0.000799233
0.000778528
0.000758781
0.000740693
0.000725635
0.000713977
0.000706395
0.000701533
0.000697736
0.000693088
0.000685988
0.00067492
0.000658742
0.000637011
0.000609483
0.000576224
0.000535657
0.000492306
0.000452656
0.000757139
0.000809646
0.000847088
0.000870382
0.000882435
0.000885815
0.000882263
0.000873429
0.00086043
0.000844712
0.00082708
0.000808347
0.000789207
0.000770991
0.000754455
0.000741046
0.000730992
0.000724706
0.000720587
0.000716941
0.000711999
0.000704409
0.000692935
0.000676651
0.000655179
0.000628293
0.000595946
0.000556844
0.000514213
0.000473293
0.000719418
0.000777458
0.000820346
0.000849105
0.000866367
0.000874243
0.00087469
0.000869255
0.00085929
0.000845974
0.000830091
0.00081322
0.000795804
0.000779246
0.000764362
0.000752641
0.000744179
0.000739107
0.000735688
0.000732218
0.000727075
0.000719109
0.000707331
0.000691006
0.000669828
0.000643613
0.000612308
0.000574399
0.00053286
0.000491744
0.000682225
0.000743354
0.000790304
0.000823776
0.000846004
0.0008584
0.000862899
0.000861058
0.000854146
0.000843403
0.000829937
0.000814785
0.000799032
0.000784199
0.000771005
0.000760963
0.000754034
0.000750087
0.000747323
0.000744065
0.000738819
0.000730609
0.000718643
0.000702359
0.00068152
0.000656056
0.000625528
0.000588689
0.000548645
0.000507937
0.000647327
0.000708534
0.000759454
0.000797042
0.000822861
0.000839393
0.00084784
0.000849614
0.000845867
0.000837828
0.00082662
0.000813534
0.000799612
0.00078638
0.000774866
0.000766451
0.000760958
0.000758042
0.000755891
0.000752882
0.000747638
0.000739316
0.000727294
0.000711151
0.000690765
0.000665869
0.000636018
0.000600165
0.000561878
0.000521946
0.000618786
0.000673479
0.000727257
0.000769237
0.00079913
0.000818879
0.000830478
0.000835613
0.000835042
0.000829753
0.000820915
0.000809853
0.00079776
0.000786296
0.000776348
0.000769459
0.000765285
0.000763306
0.000761726
0.000759003
0.00075386
0.000745568
0.000733625
0.000717768
0.00069778
0.000673399
0.000644166
0.000609553
0.00057299
0.000534038
0.000602643
0.000640534
0.000693755
0.000739825
0.000774229
0.000797742
0.00081234
0.000819888
0.000822218
0.000819653
0.000813202
0.000804226
0.000793949
0.000784152
0.000775758
0.000770285
0.000767303
0.000766164
0.000765117
0.000762707
0.000757763
0.000749639
0.000737958
0.000722395
0.000702802
0.00067891
0.000650264
0.000617432
0.000582398
0.000544442
0.000605191
0.000615437
0.000660448
0.000708704
0.000747694
0.000775513
0.000793592
0.000803866
0.000808239
0.000808033
0.000803875
0.000796968
0.000788502
0.000780309
0.000773374
0.000769188
0.000767253
0.00076687
0.000766315
0.000764241
0.000759601
0.000751759
0.000740343
0.00072515
0.00070602
0.000682622
0.000654568
0.000623744
0.000590246
0.000553308
0.000628837
0.000607336
0.000632017
0.000676974
0.000719427
0.000751815
0.00077388
0.000787286
0.000794026
0.00079564
0.00079337
0.000788395
0.000781691
0.000775025
0.000769442
0.000766408
0.000765381
0.000765655
0.000765551
0.000763819
0.00075943
0.000751869
0.000740832
0.000726107
0.00070755
0.000684721
0.000657927
0.000628798
0.000596719
0.000560767
0.000668651
0.000625075
0.000617723
0.000648396
0.000690273
0.000726557
0.000752909
0.000769883
0.00077935
0.000783029
0.000782349
0.000778874
0.000773766
0.000768538
0.000764184
0.000762164
0.000761899
0.000762741
0.000763068
0.000761697
0.000757703
0.000750508
0.000739849
0.000725564
0.0007075
0.000685352
0.000660314
0.000632731
0.000601952
0.000566932
0.000717125
0.000666546
0.000629272
0.000631355
0.000663358
0.000700451
0.000730642
0.000751462
0.00076402
0.000770045
0.00077116
0.000768944
0.000765039
0.000761073
0.000757812
0.000756658
0.000757028
0.000758347
0.000759077
0.000758087
0.000754516
0.000747832
0.00073764
0.000723854
0.000706323
0.000685245
0.00066182
0.000635651
0.000606056
0.000571891
0.000769005
0.000720253
0.000668289
0.000637328
0.000645754
0.00067605
0.000707699
0.000732038
0.00074791
0.00075656
0.000759666
0.000758918
0.000755975
0.000752892
0.000750543
0.000750095
0.000750981
0.000752687
0.000753793
0.000753195
0.000750084
0.000743936
0.000734375
0.000721148
0.000704239
0.000684625
0.000662591
0.000637677
0.000609134
0.000575732
0.000817566
0.000774176
0.00072183
0.000670657
0.000646854
0.00065884
0.000686067
0.000712139
0.000731071
0.0007425
0.000747784
0.000748679
0.000746876
0.000744366
0.000742626
0.0007427
0.000743979
0.000745988
0.000747434
0.000747233
0.000744609
0.000739032
0.000730159
0.000717616
0.000701858
0.000683561
0.000662713
0.000638912
0.000611288
0.000578548
0.000864456
0.000825716
0.000777891
0.000721637
0.000673089
0.000656343
0.000669821
0.000693253
0.000713931
0.000727932
0.000735487
0.000738145
0.000737646
0.000735893
0.000734459
0.000734753
0.00073627
0.00073849
0.000740226
0.000740426
0.000738304
0.000733336
0.000725184
0.000713637
0.000699209
0.000682127
0.000662349
0.000639496
0.000612637
0.000580422
0.000909607
0.000874436
0.000831271
0.000777563
0.000718356
0.000674877
0.000664693
0.000678296
0.000697575
0.000713193
0.000722845
0.000727312
0.000728218
0.00072739
0.000726424
0.000726684
0.000728164
0.000730475
0.000732429
0.000733007
0.000731394
0.000727072
0.000719857
0.000709589
0.000696384
0.000680432
0.00066163
0.000639557
0.00061332
0.000581492
0.000952798
0.000920279
0.000880737
0.000831216
0.000771189
0.000711761
0.000675803
0.000671277
0.000683996
0.000699064
0.000710128
0.000716264
0.000718598
0.000718817
0.000718472
0.000718879
0.000720312
0.000722509
0.000724544
0.000725445
0.000724393
0.000720876
0.000714656
0.000705555
0.000693521
0.000678635
0.000660724
0.000639323
0.000613526
0.000581917
0.000994523
0.00096364
0.00092652
0.000880533
0.000823364
0.000758452
0.000702958
0.000676092
0.000675916
0.000686904
0.000697921
0.000705249
0.000708909
0.000710222
0.000710622
0.000711347
0.000712848
0.000714999
0.000717101
0.000718286
0.000717745
0.000714975
0.000709696
0.000701691
0.0006908
0.000676954
0.000659882
0.000639042
0.000613504
0.000581898
0.00103342
0.00100373
0.000968403
0.000925207
0.000871503
0.000806962
0.000741009
0.00069384
0.000676197
0.00067868
0.000687299
0.000694841
0.000699501
0.000701865
0.000703092
0.00070429
0.000705981
0.000708161
0.000710333
0.000711769
0.000711688
0.00070961
0.000705221
0.00069825
0.000688479
0.00067567
0.000659411
0.000639054
0.000613603
0.000581763
0.00106905
0.00104044
0.00100664
0.000965692
0.000915207
0.000853438
0.000784228
0.000722913
0.000686986
0.000676916
0.000680158
0.000686369
0.000691398
0.000694648
0.000696774
0.000698611
0.000700626
0.000702907
0.000705147
0.000706767
0.000707062
0.000705587
0.000701985
0.000695952
0.00068714
0.000675269
0.000659834
0.00063998
0.000614494
0.000582047
0.00110266
0.00107508
0.0010427
0.00100383
0.000956385
0.000898261
0.000830191
0.00076173
0.000710548
0.000685874
0.000680551
0.000683448
0.000688015
0.000691981
0.000695178
0.000697922
0.000700443
0.000702897
0.000705096
0.000706636
0.000707015
0.00070578
0.000702611
0.000697204
0.000689161
0.000678107
0.000663351
0.000643781
0.000617782
0.000584048
0.00113754
0.00111141
0.0010808
0.00104432
0.00100027
0.000946748
0.000883023
0.000814157
0.000754004
0.000716072
0.000700551
0.000698392
0.000701795
0.000706665
0.000711505
0.000715629
0.000718821
0.000721249
0.000722872
0.000723528
0.000722969
0.000720929
0.000717179
0.000711451
0.000703331
0.000692307
0.000677536
0.000657489
0.000630123
0.000593681
0.00118204
0.00115838
0.00113076
0.00109839
0.00106022
0.00101484
0.000961049
0.000900837
0.000842932
0.000800317
0.000778397
0.000772614
0.00077573
0.00078256
0.000789844
0.000795502
0.000798749
0.0007999
0.000799097
0.000796559
0.000792421
0.000786857
0.000779884
0.000771316
0.000760596
0.000747117
0.000730032
0.000707441
0.000676336
0.000633703
0.0012686
0.00125065
0.00123126
0.00121027
0.00118712
0.00116059
0.00112921
0.00109328
0.00105605
0.00102679
0.00101113
0.001008
0.00101261
0.00102133
0.00102955
0.00103474
0.00103586
0.00103377
0.00102884
0.0010215
0.00101223
0.00100158
0.000989873
0.00097692
0.000961214
0.000942443
0.000921261
0.000895194
0.000860904
0.000815494
0.0015532
0.00155013
0.00155083
0.00155124
0.00155038
0.00154735
0.00154121
0.00153243
0.00151861
0.00150631
0.00149827
0.00149451
0.00149368
0.00149705
0.00150028
0.00150228
0.00150152
0.00150059
0.00149918
0.00149797
0.00149672
0.00149581
0.00149505
0.00149404
0.0014877
0.00147711
0.0014677
0.0014542
0.00143532
0.00140993
0.000204287
0.000211603
0.000208921
0.000203067
0.000195418
0.000186822
0.000177842
0.000168875
0.000160155
0.00015187
0.000144088
0.000136911
0.000130344
0.000124531
0.000119511
0.000115488
0.00011259
0.000111172
0.000111367
0.000112722
0.000114163
0.000114577
0.000113087
0.000109091
0.000102364
9.27562e-05
0.000377656
0.000357896
0.000362183
8.96536e-05
0.000787802
0.000887753
0.000858308
0.000798203
0.000731697
0.000668956
0.000613025
0.000563946
0.000521092
0.000483985
0.000451487
0.000423275
0.00039798
0.000376161
0.000357023
0.00034105
0.00032711
0.000317863
0.000313456
0.000314641
0.000320301
0.000327574
0.000330555
0.000323964
0.000307812
0.000281518
0.000269116
0.000314925
0.000391542
0.000358584
0.0012471
0.00143898
0.00144933
0.00138805
0.0013016
0.00121026
0.00112362
0.0010444
0.000973225
0.000910352
0.000854426
0.000805336
0.000760966
0.000722574
0.000689242
0.000661045
0.000635324
0.000615885
0.000601159
0.000593137
0.000592669
0.000596843
0.000596023
0.000582965
0.000552762
0.000505279
0.000449049
0.00041117
0.000441348
0.00048892
0.0015405
0.00179748
0.00185056
0.00181289
0.00173535
0.00164176
0.00154583
0.00145374
0.00136804
0.00129024
0.00121967
0.00115697
0.00110028
0.00105117
0.00100935
0.000974353
0.000942105
0.000915616
0.000891332
0.00087266
0.000861788
0.000857506
0.00084936
0.000826663
0.000783695
0.000719122
0.000637656
0.000549434
0.000511422
0.000525116
0.00168627
0.00196057
0.00207204
0.00208664
0.00203665
0.00195764
0.0018666
0.00177458
0.00168526
0.00160188
0.00152478
0.00145558
0.00139287
0.00133896
0.00129436
0.00125769
0.00122354
0.00119304
0.00116143
0.00113299
0.00111155
0.00109751
0.00108055
0.00104881
0.00099606
0.00091974
0.000822829
0.000706643
0.000617053
0.000581827
0.0017702
0.00204488
0.00219485
0.00224619
0.00223163
0.00217502
0.0020968
0.00201441
0.00192926
0.00184779
0.00177078
0.00170094
0.00163779
0.00158422
0.00154138
0.00150709
0.00147437
0.00144207
0.00140509
0.00136851
0.00133748
0.00131397
0.00128819
0.00124916
0.00118947
0.00110563
0.000999916
0.000869563
0.000747467
0.000670171
0.00180186
0.00206593
0.00223458
0.00231849
0.00233796
0.00231222
0.00226002
0.00218658
0.002108
0.00203495
0.00196339
0.00189785
0.00183876
0.0017899
0.00175223
0.00172346
0.00169443
0.00166203
0.00162129
0.00157827
0.00153905
0.00150654
0.00147335
0.00142871
0.00136456
0.00127678
0.00116635
0.00102954
0.00088933
0.000779147
0.0017818
0.00202011
0.00220409
0.0023193
0.00237378
0.00237859
0.00235173
0.00230014
0.00224094
0.0021756
0.00210856
0.00205201
0.00200011
0.00195944
0.00192966
0.00190877
0.00188508
0.00185383
0.00181066
0.00176288
0.00171711
0.00167801
0.00163863
0.00158902
0.00152228
0.0014332
0.00132167
0.0011828
0.00103362
0.000898161
0.0016853
0.00191087
0.00211283
0.00226011
0.00235072
0.00238718
0.002388
0.0023633
0.00232289
0.00227297
0.00222102
0.00217024
0.00212652
0.00209618
0.0020766
0.00206517
0.00204822
0.00201883
0.00197459
0.00192352
0.00187415
0.00182994
0.00178594
0.00173321
0.00166426
0.00157564
0.00146588
0.00132927
0.00117583
0.00101945
0.00153925
0.00174786
0.00197009
0.00215016
0.00227823
0.00234849
0.00238077
0.00238334
0.00236609
0.00233403
0.00229593
0.00225644
0.00222367
0.00220368
0.00219583
0.0021951
0.00218536
0.0021585
0.00211446
0.0020617
0.0020096
0.0019615
0.00191438
0.00186052
0.00179231
0.00170581
0.00159869
0.00146493
0.0013104
0.00113663
0.00139849
0.00156074
0.00177967
0.00199366
0.00216516
0.00227045
0.00233685
0.00236824
0.00237481
0.00236296
0.00234049
0.0023149
0.0022937
0.00228606
0.00228985
0.0023005
0.00229789
0.00227438
0.00223167
0.00217913
0.00212575
0.00207478
0.00202604
0.00197248
0.00190779
0.00182268
0.00171762
0.00158999
0.00143388
0.00124625
0.00128462
0.00138113
0.00157241
0.00179855
0.00200371
0.00215713
0.00226178
0.00232317
0.00235428
0.00236319
0.00235827
0.00234795
0.00234021
0.00234516
0.00236085
0.0023825
0.00238755
0.0023684
0.00232808
0.00227716
0.00222396
0.0021725
0.00212347
0.002071
0.00200738
0.00192563
0.00182334
0.00170247
0.00154468
0.00135111
0.00120639
0.00123279
0.00137589
0.00158971
0.00181283
0.00200469
0.00215161
0.00225234
0.00230816
0.00233882
0.00235241
0.00235857
0.00236536
0.00238373
0.00241073
0.00244282
0.00245601
0.0024423
0.00240535
0.00235668
0.00230587
0.00225547
0.00220545
0.00215356
0.00209166
0.00201375
0.00191724
0.00179881
0.00164049
0.00144246
0.0011939
0.00113605
0.00121493
0.00139125
0.00161191
0.00182844
0.00200996
0.00214692
0.00223885
0.00229314
0.00232634
0.00234931
0.00237161
0.00240317
0.00244109
0.00248314
0.00250403
0.00249722
0.00246495
0.00241902
0.00236816
0.00231638
0.0022668
0.00221882
0.00216097
0.00208779
0.0020003
0.00188087
0.00172113
0.00151943
0.00123576
0.0011175
0.00111853
0.00123296
0.00142381
0.00164483
0.00184918
0.00201568
0.00214038
0.00222694
0.00228277
0.00232298
0.00236059
0.00240489
0.00245373
0.0025051
0.00253372
0.00253479
0.00250849
0.00246626
0.00241887
0.00236834
0.00231772
0.00226816
0.00221661
0.00215145
0.00206854
0.00194846
0.00178678
0.00158182
0.00133764
0.00117067
0.00109401
0.00113843
0.00127421
0.00147277
0.00168285
0.00186927
0.00202093
0.00213681
0.00222095
0.00228148
0.00233414
0.0023908
0.00245031
0.00251037
0.00254683
0.00255626
0.0025372
0.00249986
0.00245674
0.00241025
0.00236112
0.00231187
0.00226245
0.00220644
0.00212398
0.00200242
0.00183816
0.00163001
0.00150874
0.00130688
0.00116569
0.00111689
0.00118681
0.00133344
0.00152675
0.00171958
0.00188957
0.00202954
0.00213938
0.0022247
0.00229421
0.00236265
0.00243239
0.00250063
0.00254499
0.00256307
0.00255231
0.00252107
0.00248335
0.00244151
0.00239836
0.00235156
0.00230551
0.00225145
0.00216742
0.0020438
0.00187633
0.00166485
0.00174659
0.00152263
0.00133235
0.00120439
0.00117207
0.00125178
0.00140027
0.00158047
0.00175659
0.00191285
0.00204373
0.0021512
0.00224151
0.00232212
0.00240171
0.00247773
0.00252996
0.0025569
0.00255511
0.00253165
0.00250031
0.00246467
0.00242792
0.0023887
0.00234551
0.00228779
0.00220077
0.00207421
0.00190281
0.00168757
0.0020422
0.0018057
0.00158232
0.00139045
0.00126731
0.00124428
0.00132541
0.00146842
0.00163394
0.00179562
0.00194057
0.00206582
0.00217448
0.00227142
0.00236041
0.00244377
0.00250384
0.00253969
0.00254768
0.00253382
0.00250994
0.00248274
0.00245457
0.00242303
0.00237922
0.002317
0.00222605
0.00209568
0.00191947
0.00169983
0.0023813
0.00213846
0.00189365
0.00165659
0.00145718
0.00133691
0.00131978
0.00140152
0.00153553
0.00168794
0.00183736
0.00197409
0.00209691
0.00220772
0.00230989
0.00240087
0.00246898
0.00251337
0.00253242
0.00253026
0.00251586
0.00249767
0.00247774
0.00245178
0.00240625
0.00234038
0.00224586
0.00211069
0.00192869
0.00170378
0.00274396
0.0024989
0.00224059
0.00197343
0.00171849
0.00151461
0.00140172
0.00139257
0.00147466
0.00160084
0.00174222
0.00188181
0.00201236
0.00213345
0.00224526
0.00234578
0.00242378
0.00247716
0.00250755
0.00251716
0.00251364
0.00250463
0.0024924
0.00246866
0.00242506
0.00236035
0.00226234
0.00212158
0.00193299
0.00170202
0.00310349
0.00285931
0.00259379
0.0023084
0.00201727
0.00175174
0.00155456
0.00145497
0.00145989
0.00154241
0.00166224
0.00179339
0.00192339
0.00204755
0.0021621
0.0022664
0.00235081
0.00241414
0.0024557
0.00247836
0.00248767
0.00248899
0.00248554
0.00247051
0.00243423
0.00237042
0.00226971
0.00212673
0.0019329
0.00169601
0.00342561
0.00318563
0.00291959
0.00262683
0.00231642
0.002012
0.00175168
0.00157184
0.0014975
0.00151638
0.00159646
0.00170702
0.00182399
0.00193894
0.00204473
0.00214281
0.00222701
0.00229513
0.00234565
0.00238209
0.0024073
0.00242453
0.00243715
0.00243798
0.00241745
0.00236387
0.00226508
0.0021177
0.00192416
0.00168514
0.00366729
0.00343727
0.00317936
0.00289087
0.00257698
0.00225438
0.00195395
0.0017122
0.0015641
0.00151397
0.00153706
0.00160506
0.00169047
0.00177819
0.00185957
0.00193813
0.00201004
0.00207595
0.00213381
0.00218464
0.00222935
0.00226923
0.00230519
0.00233058
0.00233614
0.00230903
0.00223111
0.00209488
0.00190027
0.00166452
0.0037803
0.00356966
0.00333131
0.00306022
0.00275808
0.00243573
0.00211651
0.00183344
0.00162407
0.00150397
0.00146051
0.00146684
0.00150193
0.00154713
0.0015968
0.00164977
0.00170362
0.0017603
0.00181768
0.00187656
0.00193653
0.00199649
0.00205578
0.00210932
0.00214813
0.00215899
0.00212348
0.00202155
0.00185315
0.00162971
0.00372775
0.00355054
0.00334571
0.00310646
0.00283159
0.00252796
0.00221377
0.00191812
0.00167613
0.00150775
0.00141022
0.00136478
0.00135976
0.00137817
0.00141222
0.00145237
0.00149194
0.00153261
0.00157629
0.00162212
0.00167078
0.00172336
0.00177982
0.0018374
0.00188933
0.00192426
0.00192503
0.0018713
0.00174122
0.00155645
0.00352812
0.00340141
0.00324759
0.00305885
0.0028327
0.00257568
0.00230455
0.00204559
0.00182654
0.00166451
0.00155842
0.00150347
0.00149264
0.0015104
0.00154599
0.00158373
0.00161375
0.00164007
0.0016634
0.00168381
0.00170324
0.00172393
0.00174694
0.0017715
0.00179402
0.00180708
0.00179716
0.00174623
0.00163322
0.00145145
0.00333796
0.00327241
0.00318037
0.00305571
0.00289669
0.00271217
0.00251752
0.00233084
0.00216987
0.00204441
0.0019587
0.00191663
0.00190967
0.00192725
0.00195862
0.00199057
0.00201375
0.00203381
0.0020479
0.0020579
0.00206475
0.00206991
0.00207352
0.00207399
0.00206808
0.0020506
0.00201035
0.00193023
0.00178959
0.00157466
0.00324419
0.00322074
0.00319008
0.00313468
0.00305144
0.00294529
0.00282382
0.00270195
0.00259022
0.00249664
0.0024296
0.00239126
0.0023767
0.00238083
0.00239475
0.0024129
0.00242793
0.00244432
0.00245898
0.00247397
0.00248939
0.00250507
0.00251981
0.00253072
0.00253405
0.00252649
0.00249806
0.00243468
0.00232236
0.00215162
0.00323462
0.00323396
0.0032324
0.00321081
0.0031676
0.00311218
0.00304419
0.00297084
0.00289755
0.00283594
0.00278435
0.0027467
0.00272261
0.00271211
0.00270938
0.00271578
0.00272512
0.00273961
0.00275831
0.00278236
0.0028109
0.0028424
0.00287459
0.00290493
0.00293025
0.00295217
0.00296033
0.00294788
0.00291701
0.00286151
0.000235316
0.000242633
0.000237798
0.000230654
0.00022186
0.000212095
0.000201941
0.000191825
0.000181997
0.000172663
0.000163887
0.000155784
0.000148335
0.000141728
0.000136016
0.000131498
0.000128427
0.000127762
0.000130044
0.000134047
0.000137425
0.000138532
0.000136424
0.000130498
0.000120318
0.000105383
0.000436313
0.000367695
8.62723e-05
9.29467e-05
0.00101351
0.00116136
0.00116465
0.0011003
0.00101678
0.000934487
0.000859776
0.000794072
0.000736329
0.00068577
0.000640369
0.000599778
0.000561456
0.00052692
0.000494392
0.000465208
0.000438391
0.000424132
0.000424002
0.000438058
0.000459731
0.000480604
0.000487605
0.000471755
0.000432592
0.000376187
0.000327711
0.00033617
0.000330143
0.000380089
0.00162233
0.00190391
0.00197177
0.00192579
0.00183066
0.00171986
0.00160903
0.00150527
0.00141014
0.00132414
0.00124509
0.00117308
0.00110446
0.00104206
0.000984156
0.000930992
0.000880173
0.000846969
0.000830581
0.000835373
0.000855819
0.000880994
0.000884675
0.000854354
0.000788462
0.000687377
0.000567853
0.000473133
0.000456377
0.000560057
0.00206819
0.00240538
0.00251845
0.00250901
0.00243045
0.00232221
0.00220337
0.0020853
0.00197237
0.00186711
0.0017684
0.0016773
0.00159059
0.00151151
0.00143946
0.00137325
0.00130833
0.00125927
0.00122535
0.00121498
0.00122368
0.00124291
0.00124123
0.00120152
0.00111496
0.000983958
0.000823186
0.00065946
0.000571094
0.000618549
0.00236294
0.00270261
0.0028641
0.00289912
0.00284924
0.00275836
0.00264705
0.00253015
0.00241293
0.00230078
0.00219376
0.00209417
0.00199912
0.00191314
0.0018367
0.001766
0.00169351
0.00163114
0.00158036
0.00155247
0.00154889
0.00155899
0.00155218
0.00150539
0.00140838
0.00126092
0.00107586
0.000871091
0.00071834
0.000694481
0.0025435
0.00286455
0.00305617
0.00313349
0.00312598
0.0030609
0.00296563
0.00286105
0.00274813
0.00263869
0.00253207
0.00243202
0.00233698
0.0022523
0.00217868
0.00210953
0.00203303
0.00195882
0.00189239
0.0018487
0.00183204
0.00183258
0.00182099
0.0017709
0.00167081
0.00151735
0.00132075
0.00109284
0.000895333
0.000811281
0.00267564
0.00296951
0.00316198
0.00326358
0.00328924
0.00326009
0.00319438
0.0030983
0.00299285
0.00289499
0.00279566
0.00270155
0.00261333
0.00253688
0.00247123
0.00240794
0.00232947
0.00224449
0.00216388
0.00210625
0.00207781
0.00206846
0.00205229
0.0020042
0.00190514
0.00175317
0.00155474
0.0013176
0.00109116
0.000959056
0.00275749
0.00299433
0.00318074
0.00330278
0.00336076
0.0033651
0.00332999
0.003261
0.0031829
0.0030904
0.00299491
0.00291233
0.00283565
0.00277302
0.00271991
0.00266527
0.0025862
0.00249148
0.00239874
0.00232975
0.0022903
0.00227164
0.00225112
0.00220549
0.00211466
0.00196924
0.0017781
0.00154086
0.00129769
0.00112468
0.00273585
0.00293737
0.00312079
0.00326405
0.00335498
0.00339416
0.00339156
0.0033538
0.00329679
0.00322493
0.00315012
0.00307589
0.00301123
0.00296642
0.00292938
0.00288503
0.00280619
0.00270352
0.00260141
0.00252238
0.00247417
0.00244652
0.00242251
0.00237984
0.00230031
0.00216716
0.00198287
0.001752
0.00150424
0.00129507
0.00263339
0.00280694
0.00299148
0.00315886
0.00328393
0.00335966
0.00339129
0.00338664
0.00335613
0.00330793
0.00325252
0.00319623
0.00315092
0.00312239
0.00310338
0.00307031
0.00299221
0.00288458
0.00277525
0.00268927
0.00263347
0.0025985
0.00257149
0.00253267
0.00246225
0.00234162
0.00216861
0.00195061
0.00170289
0.00146662
0.00250681
0.00263962
0.00281411
0.00299851
0.00315731
0.00327146
0.0033399
0.00336842
0.00336812
0.00334633
0.00331377
0.00327937
0.00325363
0.00324613
0.00324485
0.00322395
0.00314678
0.00303459
0.00292367
0.00283387
0.0027721
0.00273178
0.00270292
0.00266566
0.00260051
0.00249292
0.00233475
0.00213246
0.00189013
0.0016375
0.00238164
0.0024493
0.00260166
0.00279536
0.00298403
0.0031372
0.00324498
0.00330833
0.00333928
0.00334612
0.00333902
0.00332872
0.00332571
0.00333984
0.00335692
0.00334745
0.00327342
0.00316216
0.0030499
0.00295956
0.00289326
0.0028511
0.00281776
0.00278001
0.00271941
0.00262347
0.00248445
0.00229459
0.0020594
0.00180072
0.00227248
0.00225608
0.00237239
0.00256289
0.00277383
0.00296306
0.00311037
0.00321243
0.00327684
0.00331311
0.00333287
0.00334853
0.00337033
0.00340547
0.00344187
0.00344291
0.00337483
0.0032677
0.00315684
0.00306902
0.00300156
0.00295246
0.00291543
0.00287846
0.00282249
0.00273951
0.00261666
0.00243718
0.00220887
0.00194692
0.00219091
0.00209165
0.00215413
0.00232175
0.00254064
0.00275828
0.00294275
0.00308333
0.00318373
0.00325265
0.00330042
0.00334248
0.00338901
0.00344591
0.00350127
0.00351285
0.00345404
0.00335407
0.0032473
0.00315779
0.00308792
0.00303611
0.00299694
0.0029634
0.00291267
0.00284375
0.00273174
0.00256066
0.002338
0.00207423
0.00219255
0.0020021
0.00198468
0.00210212
0.00230591
0.00253671
0.00275089
0.0029273
0.00306362
0.0031662
0.00324508
0.00331369
0.00338491
0.00346351
0.0035367
0.00355975
0.00351257
0.00342386
0.00332334
0.00323906
0.00316908
0.0031147
0.0030749
0.00304009
0.00299785
0.00293535
0.00282944
0.0026652
0.00244672
0.00218158
0.00226698
0.00202631
0.00190717
0.00194368
0.00210094
0.00231962
0.00254812
0.00275292
0.00292232
0.00305801
0.00316826
0.00326508
0.00336031
0.00346007
0.00355003
0.00358585
0.00355335
0.00347873
0.00338691
0.00330866
0.00324295
0.00318975
0.00315122
0.00311517
0.00307768
0.00301524
0.00291167
0.00275277
0.00253585
0.00226889
0.00242818
0.0021484
0.00195338
0.00188987
0.00196736
0.00213713
0.00235451
0.00257281
0.00276774
0.00293319
0.00307351
0.0031982
0.00331681
0.00343741
0.00354279
0.00359274
0.00357727
0.00351955
0.00343888
0.00336835
0.00330872
0.00326191
0.00322555
0.00318848
0.00314794
0.00308382
0.00297951
0.00282224
0.00260558
0.00233635
0.00269603
0.00239089
0.00213501
0.00197151
0.00192875
0.00202484
0.00219702
0.00240472
0.00261086
0.00279842
0.00296487
0.00311523
0.0032557
0.00339603
0.00351541
0.00358046
0.00358368
0.00354545
0.00347877
0.00341823
0.00336707
0.0033287
0.00329308
0.00325233
0.00320817
0.00314098
0.00303389
0.00287484
0.0026575
0.00238492
0.00305279
0.00273354
0.00243569
0.00219051
0.0020383
0.0020103
0.00210718
0.00227073
0.00246568
0.00266198
0.00284686
0.0030179
0.00317758
0.00333313
0.00346519
0.00354556
0.00356866
0.00355138
0.00350288
0.00345404
0.00341323
0.00338124
0.00334412
0.00330302
0.00325705
0.00318675
0.00307567
0.00291251
0.0026917
0.00241557
0.00346239
0.00313729
0.00281332
0.00251061
0.00226511
0.00211967
0.00209801
0.00219116
0.00234699
0.00253268
0.00272348
0.00290572
0.00307953
0.00324269
0.00338265
0.00347641
0.00351956
0.00352342
0.00349717
0.00346144
0.00343087
0.00340284
0.00337563
0.00334248
0.0032971
0.00322346
0.00310684
0.00293746
0.00271072
0.00243039
0.00388081
0.00355491
0.00321651
0.00287779
0.00256601
0.00232177
0.00218578
0.00217319
0.00226277
0.00241714
0.00259579
0.00277447
0.00294988
0.00311522
0.00324904
0.00334921
0.00340985
0.00343532
0.00343147
0.00341542
0.00339969
0.00338607
0.00337198
0.00334752
0.00330537
0.00323582
0.00312118
0.00295005
0.00271807
0.00243187
0.00425981
0.00393734
0.00359414
0.00323707
0.00288532
0.00257147
0.00233823
0.00221936
0.00221732
0.00230473
0.00244962
0.00260833
0.00276542
0.00290885
0.00303326
0.00313222
0.00320746
0.0032503
0.00327015
0.00327842
0.00328574
0.00329334
0.0032994
0.00329483
0.00326478
0.00319502
0.00308567
0.00292821
0.00270206
0.00241736
0.00455033
0.00423706
0.00389891
0.00353892
0.00316973
0.00281519
0.00251184
0.0022988
0.00219833
0.00219817
0.00227412
0.00238343
0.0025042
0.00261861
0.00271703
0.00280866
0.0028881
0.0029453
0.0029881
0.00302264
0.00305773
0.00309246
0.00312552
0.00314869
0.00314755
0.00310057
0.00299944
0.00284156
0.00263822
0.0023739
0.00470727
0.00441256
0.00409108
0.00374297
0.00337573
0.00300563
0.00266091
0.00237752
0.00218662
0.00209387
0.00207987
0.00211924
0.00218847
0.00226981
0.00235238
0.0024359
0.00251087
0.00257509
0.00263063
0.00268497
0.00273891
0.00279422
0.00284971
0.00289838
0.00292729
0.00291768
0.00284799
0.00271712
0.00252409
0.00227868
0.00470248
0.00443958
0.00414914
0.00382881
0.00348223
0.00312042
0.00276512
0.00244762
0.00220061
0.00203924
0.00195287
0.00193396
0.00196515
0.00202562
0.00210714
0.00218574
0.00225305
0.00231069
0.00236367
0.00241421
0.00246303
0.00251344
0.00256589
0.00261585
0.00265324
0.00266273
0.00262473
0.00252231
0.0023577
0.00215476
0.00454888
0.00433529
0.00409458
0.00382175
0.00351798
0.00319242
0.00286395
0.00256115
0.00231447
0.00213636
0.00202507
0.00198722
0.00200539
0.00206048
0.00214145
0.00221399
0.00226921
0.0023124
0.00235048
0.00238055
0.00240587
0.00242958
0.00245319
0.00247475
0.00248757
0.00248034
0.00243615
0.00233922
0.00217714
0.00197563