/*--------------------------------*- C++ -*----------------------------------*\
| =========                 |                                                 |
| \\      /  F ield         | OpenFOAM: The Open Source CFD Toolbox           |
|  \\    /   O peration     | Version:  5.0                                   |
|   \\  /    A nd           | Web:      www.OpenFOAM.org                      |
|    \\/     M anipulation  |                                                 |
\*---------------------------------------------------------------------------*/
FoamFile
{
    version     2.0;
    format      ascii;
    class       volScalarField;
    location    "1700/air";
    object      epsilon;
}
// * * * * * * * * * * * * * * * * * * * * * * * * * * * * * * * * * * * * * //

dimensions      [0 2 -3 0 0 0 0];

internalField   nonuniform List<scalar> 
243000
(
3.47125
4.26188
4.65663
4.8901
4.97564
4.94295
4.81165
4.60382
4.34
4.04243
3.72684
3.40581
3.08347
2.77077
2.47496
2.20836
1.97932
1.80073
1.7278
1.61867
1.51986
1.40983
1.26858
1.09336
0.227603
0.848542
0.742522
0.147514
0.115242
0.112161
1.80901
2.14498
2.22178
2.20733
2.13561
2.02724
1.89711
1.75647
1.61243
1.47074
1.33411
1.20477
1.08306
0.971888
0.872548
0.787201
0.716773
0.665461
0.634013
0.61757
0.604862
0.586803
0.554788
0.505178
0.441083
0.371767
0.299279
0.228553
0.169508
0.178128
2.26481
2.65484
2.77212
2.76555
2.68365
2.55427
2.39658
2.22433
2.04663
1.8712
1.70147
1.5407
1.38988
1.25302
1.13192
1.0293
0.946045
0.886938
0.850498
0.831337
0.817302
0.796336
0.757459
0.695607
0.613723
0.519007
0.418708
0.315933
0.232792
0.198035
2.48547
2.9163
3.07743
3.10292
3.03856
2.91609
2.75637
2.57494
2.38281
2.18959
2.00035
1.81996
1.65029
1.49665
1.36163
1.24876
1.15894
1.09698
1.05911
1.03793
1.02064
0.994511
0.947828
0.874819
0.778014
0.664018
0.541227
0.412065
0.306724
0.242565
2.51964
2.95382
3.18196
3.25984
3.23204
3.13585
2.99236
2.81862
2.62732
2.42982
2.23295
2.04331
1.86399
1.70168
1.55976
1.44278
1.35161
1.29056
1.25333
1.23061
1.20913
1.17661
1.12177
1.03886
0.930036
0.801323
0.661566
0.512786
0.386749
0.303545
2.42787
2.85741
3.13719
3.27299
3.29575
3.23758
3.12313
2.96909
2.79018
2.59917
2.40435
2.21409
2.03286
1.86886
1.72581
1.60989
1.52154
1.46419
1.42897
1.40505
1.37911
1.33978
1.27696
1.18542
1.06712
0.927521
0.775271
0.612364
0.468394
0.364542
2.23966
2.67383
2.99476
3.18321
3.25872
3.2477
3.16783
3.03978
2.88212
2.70605
2.52102
2.33714
2.16024
2.00014
1.86075
1.74999
1.66763
1.61589
1.58365
1.55893
1.52871
1.48277
1.41253
1.31362
1.18802
1.04069
0.879607
0.706791
0.548496
0.4261
1.986
2.42869
2.78167
3.01774
3.14504
3.18146
3.1434
3.04997
2.91583
2.75892
2.58975
2.41778
2.25017
2.09811
1.96631
1.86382
1.78971
1.74483
1.71621
1.69118
1.65721
1.60535
1.52858
1.42359
1.2925
1.13998
0.973013
0.794005
0.625053
0.487238
1.7036
2.15004
2.52607
2.80138
2.97594
3.05799
3.06277
3.00611
2.90392
2.77103
2.6179
2.46154
2.30687
2.16608
2.04468
1.95262
1.8883
1.85091
1.82634
1.80155
1.76463
1.70786
1.62572
1.51601
1.38104
1.22534
1.05533
0.871489
0.695597
0.546602
1.45283
1.87922
2.25841
2.55778
2.77064
2.89439
2.94023
2.92153
2.85176
2.74553
2.61615
2.47557
2.33486
2.20749
2.09835
2.01806
1.96428
1.93461
1.91433
1.89034
1.85143
1.79098
1.70484
1.59185
1.45453
1.29771
1.12512
0.938156
0.759312
0.602517
1.24132
1.62728
2.00397
2.31659
2.54925
2.70606
2.78866
2.80626
2.76934
2.69116
2.58465
2.46393
2.33975
2.22581
2.12991
2.06196
2.01884
1.99678
1.98087
1.95826
1.91841
1.85566
1.76703
1.65225
1.51441
1.35673
1.18262
0.994063
0.815616
0.653848
1.08477
1.39758
1.75965
2.08235
2.33481
2.5123
2.62057
2.66952
2.6641
2.61384
2.53126
2.43041
2.32334
2.22491
2.14203
2.08625
2.05342
2.03861
2.02703
2.00631
1.9666
1.903
1.81344
1.69867
1.56091
1.40319
1.22858
1.04116
0.864893
0.700393
1.00291
1.20267
1.5275
1.8524
2.12312
2.32257
2.45243
2.52141
2.54298
2.5193
2.46035
2.37988
2.29001
2.2066
2.13702
2.09288
2.06962
2.06152
2.05414
2.03573
1.99717
1.93422
1.84563
1.73161
1.59474
1.43784
1.26374
1.08192
0.908127
0.742149
1.01691
1.06748
1.31809
1.6283
1.91209
2.13362
2.28637
2.37631
2.41532
2.41347
2.37645
2.31583
2.24301
2.17415
2.11724
2.08385
2.06914
2.06712
2.06371
2.04791
2.0116
1.95054
1.86345
1.75137
1.61664
1.46147
1.28894
1.11537
0.945294
0.779022
1.14231
1.02715
1.15569
1.4194
1.70327
1.94381
2.12004
2.23214
2.28998
2.30397
2.28432
2.24171
2.18521
2.13012
2.08496
2.06121
2.0539
2.05719
2.05743
2.04441
2.01013
1.95126
1.86701
1.7582
1.62707
1.47491
1.30867
1.1426
0.976696
0.810969
1.37474
1.12175
1.08033
1.24767
1.50462
1.75435
1.95221
2.08723
2.1652
2.19601
2.19031
2.16132
2.11924
2.07692
2.04236
2.02702
2.02585
2.03365
2.03734
2.02728
1.9963
1.94056
1.85947
1.75416
1.62665
1.47891
1.32284
1.16409
1.00259
0.838022
1.6973
1.36222
1.14424
1.15308
1.33587
1.57207
1.78401
1.94086
2.03979
2.08844
2.09754
2.07957
2.04819
2.01682
1.99155
1.98323
1.98708
1.99853
2.00538
1.99843
1.97106
1.91972
1.84275
1.74169
1.61848
1.47807
1.33181
1.18021
1.0232
0.860207
2.0935
1.72001
1.37282
1.18825
1.23335
1.41385
1.62127
1.79416
1.91337
1.98052
2.00502
1.99916
1.97613
1.95233
1.93463
1.9319
1.93966
1.95393
1.96359
1.95981
1.93636
1.88972
1.81827
1.72213
1.60411
1.47397
1.33639
1.19147
1.03884
0.877649
2.51638
2.13679
1.73161
1.38708
1.24174
1.30963
1.47748
1.65187
1.78697
1.87205
1.9123
1.91922
1.90551
1.88662
1.87389
1.87514
1.88572
1.90201
1.91409
1.91343
1.89408
1.85244
1.78699
1.69685
1.58777
1.46701
1.33705
1.19836
1.04988
0.890581
2.97545
2.59329
2.16827
1.73016
1.40157
1.29649
1.37582
1.52421
1.66427
1.76396
1.81942
1.83924
1.83563
1.8228
1.81259
1.81539
1.82748
1.84499
1.85899
1.86138
1.84616
1.80976
1.75056
1.66863
1.56974
1.45772
1.33479
1.2016
1.05682
0.899252
3.46738
3.08067
2.64671
2.16576
1.70616
1.41181
1.3459
1.42833
1.55272
1.65901
1.72717
1.75938
1.76605
1.76022
1.7536
1.75605
1.76757
1.78532
1.80059
1.80574
1.79458
1.76357
1.71205
1.64023
1.55067
1.4468
1.3304
1.20191
1.06032
0.904208
3.98624
3.59191
3.14857
2.64661
2.1127
1.65862
1.41652
1.38557
1.46429
1.56251
1.63762
1.68037
1.6969
1.69861
1.6965
1.69989
1.71077
1.72729
1.74278
1.75014
1.74327
1.71863
1.67501
1.61226
1.53151
1.43529
1.32489
1.20056
1.06137
0.906161
4.5345
4.12497
3.66635
3.14693
2.57232
2.00893
1.5965
1.41719
1.41384
1.48274
1.55474
1.60405
1.62914
1.63833
1.64138
1.64685
1.65793
1.67373
1.68934
1.69856
1.69544
1.67652
1.64017
1.58575
1.51343
1.42457
1.31979
1.19895
1.06123
0.906048
5.0895
4.66302
4.18744
3.65145
3.05129
2.42109
1.87216
1.53367
1.4168
1.43072
1.48508
1.53415
1.56513
1.58112
1.58965
1.59817
1.61028
1.62593
1.64169
1.65245
1.65261
1.6388
1.60912
1.56235
1.49809
1.41639
1.31691
1.19898
1.06172
0.905386
5.63611
5.19515
4.70461
4.15303
3.53459
2.8651
2.22099
1.73664
1.4872
1.42047
1.4397
1.47891
1.51143
1.53283
1.54711
1.5597
1.57373
1.58978
1.60573
1.61755
1.6203
1.61081
1.58683
1.54678
1.48922
1.41376
1.31937
1.20415
1.06632
0.906698
6.1869
5.73334
5.22989
4.66583
4.03435
3.3416
2.63627
2.03356
1.64728
1.4788
1.44289
1.46048
1.48954
1.51532
1.53649
1.55501
1.57234
1.58947
1.60507
1.61631
1.61961
1.61178
1.59076
1.55486
1.50216
1.43148
1.34045
1.22566
1.0835
0.916047
6.79507
6.3363
5.82593
5.25466
4.61644
3.91321
3.17335
2.48467
1.97027
1.68444
1.57498
1.5591
1.5813
1.61413
1.64748
1.67644
1.69929
1.71702
1.72921
1.73457
1.73125
1.7173
1.69128
1.65168
1.59633
1.52295
1.42802
1.30544
1.14963
0.962067
7.62544
7.17478
6.6722
6.11388
5.49716
4.81959
4.09131
3.36668
2.75456
2.35364
2.16233
2.1124
2.1368
2.19305
2.25453
2.30329
2.33176
2.34217
2.33561
2.31402
2.27883
2.23189
2.17379
2.10362
2.01779
1.91305
1.78542
1.6254
1.42107
1.16983
9.41907
9.02223
8.60669
8.17173
7.70959
7.20196
6.63053
6.01334
5.41423
4.97035
4.74104
4.69317
4.75533
4.87746
4.99513
5.07055
5.08678
5.05618
4.9845
4.87909
4.74812
4.60057
4.44187
4.27054
4.06869
3.83578
3.58373
3.28907
2.92677
2.48978
17.2062
17.103
17.1251
17.137
17.106
17.0025
16.7967
16.5054
16.0556
15.6601
15.4034
15.2822
15.2525
15.3532
15.4507
15.5115
15.4873
15.4582
15.415
15.3778
15.3397
15.3122
15.2893
15.2588
15.0662
14.7476
14.4675
14.0739
13.5348
12.836
6.17841
7.99395
8.92545
9.46394
9.68301
9.64591
9.40865
9.02349
8.52949
7.96341
7.3494
6.71812
6.08499
5.48273
4.92711
4.44663
4.0539
3.77894
3.61984
3.5253
3.39065
3.13157
2.71761
2.17849
1.59104
1.03884
0.171441
0.14811
0.128762
0.521333
3.89173
4.53365
4.95396
5.19614
5.28471
5.23905
5.08402
4.84965
4.56062
4.23789
3.89824
3.55654
3.22522
2.91715
2.64458
2.41985
2.2523
2.15711
2.13925
2.16185
2.15283
2.0556
1.85211
1.56159
1.21915
0.873302
0.537801
0.311595
0.300062
0.236779
3.42815
3.87629
4.16286
4.32399
4.38182
4.34754
4.23246
4.05411
3.82937
3.57466
3.30398
3.03019
2.76405
2.51793
2.30272
2.13189
2.01298
1.9576
1.9681
2.01194
2.02706
1.965
1.80898
1.56765
1.27622
0.967293
0.670449
0.420023
0.33764
0.293854
3.13659
3.50283
3.74428
3.88438
3.94368
3.93159
3.85201
3.71561
3.53494
3.32371
3.09419
2.85864
2.62685
2.41276
2.2273
2.08436
1.99058
1.95553
1.9769
2.02344
2.04259
1.99145
1.85374
1.63798
1.3708
1.07918
0.790101
0.522531
0.37015
0.290423
2.86111
3.15848
3.38484
3.53028
3.60762
3.62434
3.58036
3.48196
3.33942
3.16465
2.9689
2.76393
2.55991
2.37141
2.20951
2.08905
2.01563
1.99655
2.0243
2.06863
2.08406
2.03455
1.9064
1.70677
1.45686
1.17981
0.899258
0.626427
0.433349
0.318872
2.55522
2.80086
3.02721
3.19009
3.29428
3.34239
3.33343
3.27096
3.16376
3.02258
2.85806
2.68169
2.50348
2.33882
2.19909
2.09989
2.04572
2.0412
2.07347
2.11352
2.12268
2.07082
1.94814
1.75992
1.52496
1.2628
0.993441
0.724691
0.512504
0.372034
2.21962
2.43186
2.66446
2.85079
2.98526
3.06491
3.08703
3.05865
2.98533
2.87644
2.74237
2.59413
2.44113
2.29975
2.18178
2.10344
2.06817
2.07699
2.11289
2.14809
2.15025
2.09523
1.97495
1.79563
1.57432
1.3274
1.07187
0.813062
0.594865
0.437356
1.86729
2.05907
2.3037
2.51514
2.67962
2.78572
2.83418
2.83739
2.79663
2.71999
2.61672
2.49646
2.36875
2.25007
2.15346
2.09551
2.07841
2.09938
2.13837
2.16891
2.16427
2.10455
1.98579
1.81504
1.60666
1.37522
1.13463
0.889321
0.673625
0.506748
1.52509
1.70332
1.95901
2.19244
2.38266
2.50784
2.58143
2.61377
2.60404
2.55682
2.48129
2.38923
2.2862
2.18958
2.1136
2.07522
2.07487
2.10673
2.14835
2.17494
2.16297
2.09933
1.98198
1.81885
1.62417
1.40836
1.18315
0.952808
0.745895
0.575381
1.27494
1.4262
1.66438
1.90065
2.10426
2.24324
2.34053
2.39778
2.41494
2.3948
2.34474
2.27549
2.19503
2.11961
2.06307
2.04283
2.05764
2.09875
2.14261
2.166
2.14904
2.08317
1.96792
1.812
1.62927
1.42901
1.21912
1.00435
0.809324
0.640546
1.10827
1.22455
1.43798
1.66855
1.86327
2.00535
2.11822
2.19405
2.23259
2.23527
2.20651
2.15755
2.09755
2.04178
2.00328
1.99933
2.02719
2.07598
2.12163
2.14234
2.12218
2.0563
1.94464
1.79693
1.62536
1.4395
1.24443
1.04657
0.863986
0.700983
1.00327
1.07383
1.25802
1.47962
1.67048
1.81207
1.92459
2.00843
2.06117
2.07972
2.06916
2.0381
1.99614
1.95793
1.93576
1.94588
1.98435
2.0391
2.08594
2.10481
2.08326
2.01882
1.91331
1.7748
1.61474
1.44111
1.26087
1.08041
0.910465
0.754976
0.952108
0.966453
1.11227
1.31716
1.50761
1.65566
1.76743
1.84874
1.90463
1.93295
1.93613
1.91989
1.89325
1.87013
1.86205
1.88373
1.93029
1.98917
2.03665
2.05458
2.03335
1.97222
1.87451
1.74634
1.59814
1.4368
1.27144
1.10711
0.949497
0.802314
0.976261
0.910165
0.997911
1.17109
1.35984
1.52165
1.63839
1.71781
1.77021
1.80007
1.81108
1.80578
1.79126
1.78049
1.78372
1.8143
1.86641
1.92762
1.97525
1.99309
1.97365
1.91751
1.82848
1.71209
1.57625
1.42794
1.27819
1.12822
0.982023
0.843207
1.07432
0.934581
0.94206
1.06376
1.2291
1.40002
1.52697
1.60729
1.65743
1.6858
1.6982
1.69873
1.69261
1.69108
1.70252
1.73921
1.79437
1.85625
1.90359
1.92212
1.90583
1.85615
1.77673
1.67311
1.54999
1.41639
1.28141
1.1446
1.00884
0.877988
1.2504
1.05011
0.960203
1.00593
1.13282
1.29065
1.42543
1.51085
1.56143
1.58888
1.60069
1.60187
1.59991
1.60392
1.62052
1.66044
1.71627
1.77729
1.82393
1.84381
1.83172
1.78958
1.72062
1.62975
1.52062
1.40298
1.28143
1.15686
1.03057
0.90702
1.5051
1.26748
1.08805
1.02369
1.08229
1.20136
1.33152
1.42375
1.47786
1.50594
1.51749
1.51798
1.51587
1.52144
1.54004
1.58036
1.63468
1.69344
1.73898
1.76063
1.75341
1.71956
1.66174
1.58389
1.49109
1.38852
1.27965
1.16585
1.04788
0.930725
1.83414
1.57943
1.33841
1.15962
1.10339
1.15403
1.25395
1.34581
1.404
1.43426
1.44639
1.44659
1.44333
1.44646
1.46392
1.50198
1.55285
1.60812
1.65212
1.67569
1.67373
1.64873
1.60248
1.53945
1.46244
1.37402
1.27674
1.17228
1.06137
0.949458
2.22869
1.96712
1.69482
1.42784
1.24141
1.18037
1.21271
1.28367
1.3405
1.37261
1.38596
1.38648
1.38258
1.38284
1.3961
1.42949
1.47523
1.526
1.56807
1.5935
1.59717
1.58185
1.54833
1.49887
1.43669
1.36093
1.27376
1.17706
1.07177
0.96376
2.68489
2.41859
2.13049
1.81064
1.51147
1.31425
1.24026
1.25421
1.29386
1.32273
1.3364
1.33757
1.33388
1.33262
1.34245
1.36969
1.40918
1.45471
1.49494
1.52253
1.53255
1.52568
1.50303
1.46639
1.41675
1.35145
1.27212
1.18142
1.08016
0.974731
3.20152
2.92957
2.62875
2.27718
1.89924
1.5722
1.36836
1.28407
1.27709
1.29127
1.3012
1.30241
1.29994
1.29918
1.30853
1.33224
1.36704
1.40778
1.44544
1.47354
1.4877
1.48724
1.47429
1.44862
1.40701
1.34856
1.27482
1.18782
1.08835
0.983873
3.78537
3.50561
3.18903
2.81103
2.37929
1.94914
1.61017
1.40189
1.31536
1.29267
1.29079
1.28994
1.29007
1.29322
1.30722
1.33279
1.36677
1.40367
1.4377
1.4639
1.47922
1.4832
1.47623
1.45726
1.42148
1.36655
1.29305
1.20328
1.10066
0.993067
4.46149
4.17073
3.83312
3.42519
2.9489
2.44109
1.9826
1.64076
1.44713
1.36167
1.33291
1.32694
1.33263
1.3467
1.37479
1.41155
1.45049
1.487
1.51704
1.5383
1.54955
1.55099
1.5426
1.52164
1.48388
1.42603
1.34611
1.24527
1.12805
1.00825
5.29232
4.98741
4.62388
4.18146
3.6627
3.09367
2.53793
2.06932
1.75369
1.58292
1.51126
1.49602
1.51656
1.55843
1.62194
1.68897
1.74477
1.78608
1.80911
1.81562
1.80803
1.78835
1.75781
1.71476
1.65585
1.57649
1.47263
1.34479
1.19557
1.04491
6.43197
6.11388
5.72591
5.25334
4.70235
4.09395
3.47236
2.90269
2.47334
2.21192
2.09408
2.08058
2.14874
2.26811
2.42539
2.57049
2.66713
2.71408
2.71202
2.66574
2.58727
2.48723
2.37384
2.25081
2.11627
1.96476
1.78963
1.5893
1.3649
1.14219
8.26953
7.95443
7.56953
7.10813
6.58269
6.00926
5.41227
4.83712
4.38018
4.10073
4.00878
4.09518
4.34447
4.70611
5.12863
5.47709
5.66165
5.6918
5.57122
5.3269
4.99734
4.62077
4.22764
3.83621
3.45131
3.06833
2.67629
2.26808
1.83946
1.42692
11.8751
11.6317
11.3521
11.0411
10.731
10.4369
10.1543
9.90315
9.75032
9.77834
10.053
10.6122
11.4422
12.4575
13.5035
14.2772
14.6134
14.541
14.0611
13.2577
12.2249
11.0707
9.87946
8.70593
7.57679
6.49703
5.45413
4.42639
3.39589
2.4259
20.0801
20.0354
20.0583
20.1732
20.4872
21.0027
21.6544
22.3382
23.0738
24.0019
25.2245
26.8074
28.6794
30.6833
32.4897
33.6953
34.1581
33.8884
32.8537
31.2066
29.0836
26.6732
24.1266
21.5343
18.9458
16.3947
13.8882
11.3825
8.83777
6.39328
35.2346
35.3632
36.0719
37.1688
38.747
40.5376
42.2446
43.8407
45.2586
46.8974
48.8493
51.0139
53.1479
55.1014
56.4177
56.9606
56.9116
56.1873
54.7899
52.8421
50.4659
47.8135
44.9909
42.0184
38.8575
35.4946
31.921
28.0753
23.8856
19.6083
42.898
43.2174
44.862
46.8912
48.6366
49.8205
50.5787
51.2218
51.9654
53.1358
54.5847
55.9111
56.7236
57.0987
56.5635
55.4615
54.4531
53.2675
51.9808
50.6333
49.3463
48.1698
47.1263
46.1681
45.1658
44.0684
42.8237
41.4802
39.9953
38.2265
9.44435
12.0525
13.1623
13.8694
14.1701
14.1144
13.7755
13.225
12.5171
11.7028
10.8144
9.89718
8.96867
8.08259
7.2636
6.56451
6.01693
5.73676
5.7671
5.93097
5.91577
5.53572
4.7716
3.72971
2.58632
1.5243
0.17328
0.149631
0.555754
0.584066
5.53906
6.26256
6.6306
6.88494
6.98506
6.92989
6.74463
6.45906
6.10143
5.69548
5.26307
4.82142
4.38807
3.97754
3.61364
3.31578
3.11569
3.07739
3.23868
3.47741
3.59163
3.47102
3.11933
2.60306
1.99323
1.35455
0.748212
0.376508
0.362172
0.261258
5.00161
5.44239
5.68895
5.82245
5.84727
5.77033
5.60666
5.37191
5.08189
4.75293
4.40215
4.04396
3.69336
3.36462
3.07724
2.85253
2.71476
2.71582
2.88341
3.11587
3.24879
3.18769
2.93939
2.53821
2.03478
1.48883
0.958031
0.531793
0.394986
0.31259
4.7194
5.03888
5.24542
5.35519
5.37374
5.30912
5.17172
4.97295
4.72405
4.43792
4.12934
3.81174
3.49903
3.20793
2.95745
2.76867
2.6623
2.683
2.84109
3.04766
3.1718
3.1292
2.91935
2.56992
2.12835
1.63283
1.13161
0.678828
0.435466
0.315524
4.44143
4.66472
4.85183
4.96864
5.00823
4.97502
4.87241
4.71048
4.49913
4.25007
3.97671
3.69182
3.41038
3.14978
2.92932
2.77129
2.69343
2.73157
2.87966
3.0596
3.15896
3.11484
2.92121
2.60651
2.20657
1.75186
1.27992
0.824153
0.515401
0.34906
4.10525
4.24696
4.42566
4.56329
4.63785
4.64617
4.58542
4.46383
4.29118
4.07937
3.84119
3.58921
3.33857
3.10825
2.91804
2.79134
2.74318
2.79849
2.93699
3.08801
3.16086
3.10513
2.91778
2.6264
2.25912
1.84101
1.40063
0.959559
0.618145
0.41092
3.72677
3.7952
3.96388
4.1248
4.23979
4.29242
4.27815
4.19949
4.06753
3.8948
3.69355
3.47643
3.25796
3.05951
2.90142
2.80796
2.79105
2.86302
2.99253
3.11548
3.16052
3.08977
2.90372
2.62568
2.28723
1.90296
1.49504
1.07834
0.727627
0.490567
3.31681
3.32404
3.47999
3.66165
3.81602
3.91297
3.9442
3.91068
3.82144
3.68894
3.5259
3.34525
3.16141
2.99636
2.87225
2.81392
2.82873
2.91649
3.03711
3.13365
3.15182
3.06536
2.87833
2.61183
2.29428
1.94159
1.56577
1.17767
0.833557
0.577884
2.87729
2.8447
2.99192
3.19094
3.37951
3.51691
3.59024
3.60071
3.55451
3.46275
3.33884
3.19543
3.04779
2.91759
2.82875
2.80666
2.8526
2.95408
3.06576
3.13903
3.13157
3.03124
2.84245
2.58654
2.28701
1.96163
1.616
1.25796
0.929002
0.666331
2.42848
2.3779
2.52251
2.73508
2.94921
3.11895
3.2291
3.27809
3.27304
3.22117
3.13596
3.02975
2.91854
2.82452
2.77134
2.78548
2.86058
2.97248
3.07591
3.12751
3.09833
2.98609
2.79718
2.55196
2.26981
1.96628
1.64938
1.32256
1.01137
0.748932
2.05753
1.98356
2.11403
2.32593
2.54978
2.73761
2.87527
2.95563
2.98534
2.97073
2.92243
2.85227
2.77679
2.71876
2.70128
2.75022
2.85121
2.97309
3.0658
3.09783
3.05114
2.93008
2.7438
2.50988
2.24457
1.96118
1.67021
1.37168
1.07963
0.822794
1.76687
1.66122
1.76771
1.96966
2.19479
2.39334
2.54594
2.64607
2.70255
2.71897
2.70409
2.66762
2.62615
2.60313
2.61928
2.70072
2.82331
2.9497
3.03424
3.0493
2.98978
2.86394
2.68382
2.46165
2.21311
1.94996
1.68446
1.40794
1.13413
0.886209
1.55482
1.41117
1.48374
1.66573
1.88456
2.08702
2.24864
2.36311
2.43617
2.47484
2.48717
2.48062
2.47054
2.47983
2.52648
2.63694
2.77626
2.9046
2.9807
2.98242
2.91487
2.78852
2.61647
2.40819
2.17717
1.9356
1.69074
1.43313
1.17591
0.938438
1.42471
1.23982
1.26598
1.41476
1.61787
1.81845
1.98488
2.1083
2.19376
2.24773
2.27884
2.29629
2.31342
2.35068
2.4246
2.5592
2.71029
2.8382
2.90596
2.89854
2.82739
2.70456
2.54294
2.35085
2.13887
1.91921
1.68945
1.44863
1.2063
0.979752
1.39597
1.16701
1.12715
1.22498
1.3976
1.58757
1.75436
1.88286
1.9764
2.04133
2.08616
2.1199
2.15832
2.21848
2.31555
2.46852
2.62628
2.75204
2.81252
2.79997
2.72942
2.61378
2.4653
2.29197
2.10248
1.90033
1.6838
1.45645
1.22691
1.01097
1.45835
1.20702
1.08982
1.1128
1.23434
1.39846
1.55768
1.68711
1.78521
1.85731
1.91188
1.95677
2.00944
2.08667
2.20164
2.36695
2.52702
2.64935
2.70431
2.69029
2.62418
2.51922
2.38699
2.23631
2.06774
1.8797
1.67471
1.45769
1.23923
1.03324
1.61507
1.3487
1.16906
1.10071
1.14765
1.26256
1.39962
1.52271
1.62118
1.69697
1.75778
1.81074
1.87184
1.9595
2.08652
2.25842
2.41743
2.53559
2.58728
2.57516
2.51714
2.42652
2.31562
2.18707
2.03447
1.85879
1.66349
1.45498
1.24514
1.04791
1.88508
1.60698
1.37897
1.2205
1.16206
1.20147
1.29224
1.39527
1.48703
1.56221
1.62599
1.68421
1.75163
1.84322
1.97646
2.15005
2.3059
2.41981
2.47071
2.46427
2.41874
2.34822
2.25771
2.14531
2.00542
1.83955
1.65176
1.44989
1.24605
1.05633
2.27178
1.97889
1.71459
1.48013
1.31221
1.24129
1.25585
1.31684
1.38923
1.45713
1.52018
1.58128
1.65353
1.74887
1.88293
2.05469
2.2071
2.3177
2.37076
2.3766
2.34738
2.29291
2.21714
2.1155
1.9842
1.82476
1.64167
1.44409
1.24442
1.0602
2.77081
2.45825
2.16159
1.8681
1.6025
1.41089
1.31789
1.30556
1.34085
1.39061
1.448
1.50994
1.58787
1.69084
1.82889
1.99671
2.14846
2.25972
2.31976
2.33514
2.31716
2.27337
2.20355
2.10489
1.97607
1.81822
1.63605
1.43988
1.24223
1.06132
3.38502
3.04569
2.71325
2.36879
2.02395
1.7197
1.50492
1.39298
1.36311
1.38039
1.4263
1.48878
1.57587
1.69088
1.84543
2.02099
2.17722
2.29003
2.35354
2.37421
2.36167
2.32025
2.25038
2.14924
2.01046
1.83879
1.64535
1.44245
1.24212
1.06207
4.1328
3.75887
3.38352
2.98753
2.57526
2.17611
1.84376
1.61737
1.50147
1.46892
1.49391
1.55885
1.66412
1.80841
1.99873
2.20163
2.37177
2.49062
2.55522
2.57315
2.55201
2.49567
2.40684
2.28462
2.12473
1.92819
1.7037
1.47303
1.25612
1.06807
5.06466
4.64906
4.22434
3.7739
3.3004
2.82428
2.39247
2.05539
1.84331
1.75011
1.74928
1.82583
1.9716
2.1768
2.44828
2.71552
2.92088
3.05306
3.11217
3.10832
3.04705
2.93813
2.79011
2.60714
2.38879
2.13693
1.85925
1.5768
1.31275
1.09408
6.30049
5.8403
5.3665
4.86614
4.34324
3.81384
3.3152
2.89599
2.60435
2.46065
2.45146
2.57528
2.82009
3.16594
3.61442
4.02299
4.30399
4.45682
4.48791
4.40592
4.22815
3.97755
3.67775
3.34513
2.9867
2.60731
2.21448
1.82814
1.47044
1.18063
8.11539
7.62428
7.12262
6.60148
6.06855
5.54055
5.04707
4.62833
4.34029
4.22587
4.30154
4.59297
5.09204
5.7652
6.59113
7.28373
7.70242
7.87057
7.79345
7.49307
7.0164
6.41676
5.75228
5.06772
4.38437
3.71323
3.06025
2.4409
1.87793
1.41807
11.1631
10.6967
10.233
9.77469
9.33806
8.94865
8.63516
8.42699
8.37203
8.53626
8.96727
9.72303
10.8007
12.136
13.6403
14.7904
15.3936
15.5246
15.1667
14.3925
13.2911
11.97
10.5495
9.12452
7.74556
6.4379
5.20666
4.0558
3.00362
2.13153
17.0013
16.6555
16.3431
16.1072
15.9772
16.0013
16.205
16.5885
17.1777
18.036
19.2386
20.86
22.8822
25.1668
27.4874
29.0625
29.7579
29.7092
28.8843
27.4202
25.4408
23.1067
20.577
18.0004
15.4626
13.0143
10.6867
8.45563
6.32995
4.46966
28.0496
28.0373
28.1073
28.3151
28.7721
29.5535
30.5809
31.8125
33.2535
34.9941
37.1034
39.6231
42.4717
45.3479
47.8006
48.9599
49.2052
48.6287
47.3102
45.3626
42.9119
40.0909
36.9963
33.6989
30.2279
26.6142
22.9773
19.2686
15.4723
11.8655
43.1253
43.1796
44.1284
45.5329
47.0954
48.5885
50.0381
51.5214
53.1408
55.0841
57.3541
59.7945
62.1376
63.8238
64.2445
63.0023
61.6838
60.0488
58.3459
56.5115
54.6805
52.906
51.1617
49.302
47.1672
44.6349
41.452
37.7495
33.5209
29.0509
47.4136
48.1054
49.8713
51.9961
53.8979
55.2944
56.2321
57.0199
57.9459
59.2114
60.6713
61.924
62.5717
62.3557
60.8325
57.994
55.7319
53.5685
51.7933
50.3239
49.2793
48.6301
48.3156
48.1617
47.9746
47.6185
47.0197
46.1967
45.1393
43.8566
12.9753
16.3433
17.6025
18.2739
18.572
18.4721
18.029
17.3215
16.4109
15.3589
14.199
12.9897
11.7461
10.5475
9.42907
8.48584
7.81675
7.8024
8.56307
9.50037
9.8177
9.2597
7.95048
6.17275
4.21633
2.38388
0.977796
0.148941
0.555828
0.607823
7.37935
8.20797
8.55863
8.73731
8.7994
8.71109
8.47551
8.12058
7.67757
7.17235
6.63008
6.0681
5.51268
4.97807
4.50525
4.11972
3.9047
4.06192
4.67193
5.35347
5.65029
5.45022
4.86802
4.05288
3.11238
2.08724
1.12926
0.437546
0.333177
0.267845
6.7122
7.14337
7.35145
7.44049
7.42477
7.30468
7.08756
6.78519
6.41578
5.99626
5.54615
5.07953
4.61955
4.18325
3.80421
3.50998
3.36424
3.53219
4.06158
4.64805
4.93776
4.83002
4.41566
3.81723
3.068
2.22063
1.37983
0.650331
0.382703
0.293992
6.43711
6.68751
6.85915
6.943
6.93106
6.82575
6.63453
6.36628
6.03559
5.65646
5.24648
4.81844
4.39594
3.99998
3.66314
3.41289
3.30736
3.48796
3.95546
4.45626
4.71499
4.63229
4.29014
3.76604
3.11443
2.36738
1.59356
0.84627
0.456165
0.304924
6.16431
6.29219
6.45003
6.55493
6.57766
6.51153
6.35721
6.12479
5.82902
5.48367
5.1053
4.70792
4.31599
3.95182
3.64954
3.43925
3.37655
3.57604
4.00023
4.42169
4.62692
4.53916
4.22197
3.73999
3.15363
2.48045
1.76529
1.03553
0.561468
0.347563
5.81196
5.8476
5.9973
6.13597
6.207
6.19342
6.08606
5.89584
5.63911
5.33052
4.98681
4.62177
4.26191
3.93077
3.66539
3.49894
3.486
3.70884
4.09286
4.44388
4.58608
4.47714
4.16463
3.7089
3.16567
2.55527
1.89754
1.20708
0.690507
0.417823
5.38681
5.34703
5.48705
5.65836
5.78183
5.82374
5.77105
5.62952
5.41815
5.15209
4.84927
4.52076
4.19675
3.90366
3.68087
3.56531
3.60794
3.85557
4.2016
4.47955
4.56094
4.42228
4.10558
3.66729
3.15589
2.59783
1.99504
1.35418
0.828045
0.509233
4.90746
4.80026
4.92838
5.1263
5.299
5.39526
5.40094
5.31408
5.15322
4.93471
4.67816
4.39325
4.10938
3.86
3.68612
3.6286
3.73092
4.00043
4.30829
4.51672
4.53706
4.36496
4.04124
3.61585
3.13165
2.61471
2.06348
1.47584
0.961521
0.611808
4.38851
4.21608
4.33687
4.55605
4.77087
4.91867
4.98055
4.95133
4.84468
4.67796
4.47221
4.23616
3.99799
3.7972
3.67848
3.68526
3.84807
4.13327
4.40114
4.54353
4.50604
4.30194
3.97119
3.55696
3.09669
2.61268
2.10925
1.57608
1.08298
0.716129
3.84519
3.62179
3.73423
3.97076
4.21807
4.41047
4.52459
4.55012
4.49939
4.3869
4.23504
4.05171
3.8646
3.71688
3.65832
3.73385
3.95354
4.24565
4.47106
4.55155
4.46241
4.23157
3.89607
3.49313
3.05529
2.60259
2.14279
1.65389
1.18704
0.814524
3.30943
3.07056
3.16747
3.40219
3.66793
3.89349
4.05223
4.12551
4.12861
4.07023
3.97324
3.84465
3.71186
3.62213
3.62699
3.77294
4.04138
4.33007
4.51083
4.5346
4.40271
4.15232
3.81662
3.42687
3.01135
2.58975
2.16359
1.70993
1.27056
0.9023
2.85353
2.58565
2.6565
2.87761
3.14824
3.39472
3.58586
3.69747
3.74609
3.73883
3.69496
3.62098
3.54459
3.51611
3.58478
3.79997
4.10503
4.37952
4.51695
4.48963
4.32553
4.06431
3.73427
3.36075
2.96913
2.57335
2.16735
1.7453
1.3332
0.976112
2.47987
2.17729
2.21301
2.40924
2.67257
2.92872
3.1402
3.28524
3.37043
3.40463
3.4091
3.38692
3.36819
3.4002
3.53302
3.81155
4.13773
4.39157
4.48454
4.41729
4.23192
3.96906
3.65126
3.29788
2.93146
2.55189
2.16058
1.7631
1.37622
1.03429
2.1861
1.85651
1.84806
2.00753
2.2506
2.50502
2.72738
2.89713
3.01218
3.08205
3.12532
3.14936
3.18667
3.2775
3.47246
3.80416
4.1401
4.36216
4.41563
4.32024
4.12507
3.86976
3.57128
3.24404
2.89608
2.52573
2.14587
1.76482
1.40138
1.07679
1.99429
1.64259
1.57593
1.68594
1.89332
2.13257
2.35618
2.54009
2.67917
2.7783
2.8538
2.91633
3.00493
3.15232
3.40444
3.77523
4.103
4.29495
4.31561
4.20449
4.01145
3.77261
3.50228
3.1985
2.85991
2.49638
2.12494
1.75708
1.4116
1.10472
1.91853
1.56168
1.42027
1.46408
1.61621
1.823
2.03534
2.22283
2.37699
2.49931
2.60153
2.69618
2.82899
3.0301
3.33166
3.7258
4.03545
4.19807
4.19579
4.0817
3.90305
3.69296
3.44883
3.15823
2.82477
2.46534
2.09954
1.74209
1.40977
1.11988
1.96612
1.61616
1.41714
1.36629
1.44006
1.59254
1.77601
1.95479
2.11412
2.25164
2.3759
2.49926
2.66785
2.91724
3.25994
3.66314
3.94986
4.08726
4.07575
3.9727
3.82585
3.64035
3.40958
3.12392
2.79255
2.43442
2.07176
1.72205
1.40099
1.12446
2.13525
1.78838
1.54471
1.41024
1.38802
1.46306
1.59436
1.74742
1.90021
2.04421
2.18528
2.33376
2.5367
2.82519
3.20163
3.60434
3.86955
3.99145
3.98815
3.9183
3.7924
3.61204
3.3861
3.09976
2.76624
2.40643
2.04429
1.69959
1.38736
1.12181
2.46035
2.10515
1.82113
1.60867
1.48352
1.45257
1.5118
1.61672
1.74805
1.88881
2.04146
2.21363
2.45421
2.77278
3.18123
3.58183
3.83707
3.96254
3.99351
3.93653
3.80504
3.6359
3.39182
3.09248
2.75111
2.38586
2.0209
1.67803
1.37174
1.11527
2.95506
2.57162
2.24409
1.96154
1.73773
1.59622
1.54971
1.58475
1.67755
1.80495
1.96525
2.16309
2.44089
2.80566
3.24788
3.65657
3.93414
4.08092
4.12339
4.05752
3.93013
3.75502
3.4871
3.1453
2.76623
2.38
2.00694
1.66172
1.35761
1.10724
3.61844
3.1933
2.81574
2.46781
2.15623
1.90628
1.74781
1.68955
1.72139
1.82245
1.9925
2.22524
2.55998
2.99034
3.50134
3.9546
4.2669
4.43206
4.46094
4.3792
4.25089
4.02803
3.70661
3.31176
2.8733
2.42898
2.01956
1.65732
1.34932
1.10112
4.47473
3.99698
3.56235
3.15043
2.76232
2.41768
2.1523
1.99594
1.95605
2.02579
2.2077
2.49139
2.9147
3.45803
4.0982
4.6475
5.02067
5.18913
5.19195
5.09842
4.91514
4.58237
4.14901
3.65524
3.13238
2.61058
2.12232
1.70191
1.36338
1.10356
5.59221
5.05581
4.56154
4.08954
3.63822
3.22113
2.87168
2.63164
2.53066
2.5777
2.79497
3.17399
3.74957
4.48934
5.36707
6.08744
6.56479
6.71858
6.70681
6.56825
6.20737
5.6635
5.01889
4.33757
3.65748
3.00435
2.39895
1.8779
1.45609
1.14624
7.12942
6.53965
5.99585
5.48075
4.9927
4.54209
4.15832
3.88748
3.77588
3.85853
4.18216
4.75482
5.61051
6.69173
7.98134
8.9678
9.60478
9.76957
9.76786
9.38224
8.67483
7.74833
6.72956
5.70758
4.7339
3.83252
3.01339
2.3038
1.72249
1.29921
9.44111
8.82557
8.26669
7.7536
7.28796
6.88224
6.56595
6.38759
6.40125
6.67657
7.27222
8.22779
9.57778
11.2169
13.1299
14.4359
15.2752
15.5425
15.2924
14.4966
13.2416
11.6974
10.0726
8.48213
6.98889
5.62956
4.40097
3.31793
2.4084
1.72379
13.2677
12.7136
12.2025
11.7778
11.448
11.2323
11.1642
11.301
11.7018
12.4332
13.5613
15.1552
17.2469
19.6433
22.2719
23.7939
24.7066
24.8629
24.2312
22.9203
21.0171
18.7054
16.3066
13.9289
11.6515
9.54329
7.59324
5.80403
4.21587
2.9564
19.861
19.5268
19.2423
19.0254
18.9907
19.1608
19.582
20.2935
21.3261
22.7396
24.5842
26.9457
29.846
32.9133
35.9523
36.9051
36.952
36.2472
35.1118
33.5213
31.5439
29.226
26.457
23.4755
20.4116
17.4386
14.5223
11.6534
8.8945
6.52871
30.3909
30.2696
30.4433
30.8486
31.3242
32.0039
32.9675
34.2372
35.8208
37.777
40.1306
42.941
46.1508
49.0325
50.9009
49.1741
47.6819
45.9668
44.4487
42.8823
41.309
39.6593
37.8547
35.7816
33.3393
30.349
26.9547
23.249
19.2889
15.5639
42.0189
42.2094
43.1153
44.3556
45.6723
46.9507
48.1809
49.4718
50.9814
52.7728
54.847
57.1344
59.3827
60.2699
59.589
55.0447
52.0288
49.429
47.6285
46.2893
45.4546
44.9754
44.6716
44.2941
43.5785
42.3716
40.5262
38.0901
35.0506
31.6537
43.7908
44.8551
46.6338
48.6253
50.4378
51.8756
52.9605
53.9177
54.9714
56.2557
57.6433
58.7851
59.3739
58.406
55.4446
49.4212
45.7117
42.7985
40.9522
39.7814
39.3609
39.6256
40.3758
41.3053
42.1546
42.7512
42.977
42.8433
42.4113
41.8017
17.1281
21.2256
22.549
23.0702
23.2346
23.0087
22.4052
21.4992
20.352
19.0282
17.5541
15.9978
14.3708
12.7857
11.2962
10.0667
9.36104
10.1997
12.7344
15.1902
15.9356
14.9388
12.7415
9.94378
6.90647
3.9744
1.63535
0.149877
0.131004
0.578137
9.48506
10.3565
10.6505
10.7245
10.7048
10.5586
10.263
9.83426
9.30264
8.69141
8.02865
7.32637
6.62306
5.9283
5.31432
4.80618
4.60163
5.21964
6.73695
8.12982
8.58336
8.16945
7.23726
6.06318
4.75027
3.29577
1.80817
0.519761
0.232748
0.255413