/*--------------------------------*- C++ -*----------------------------------*\
| =========                 |                                                 |
| \\      /  F ield         | OpenFOAM: The Open Source CFD Toolbox           |
|  \\    /   O peration     | Version:  5.0                                   |
|   \\  /    A nd           | Web:      www.OpenFOAM.org                      |
|    \\/     M anipulation  |                                                 |
\*---------------------------------------------------------------------------*/
FoamFile
{
    version     2.0;
    format      ascii;
    class       volScalarField;
    location    "1700/air";
    object      k;
}
// * * * * * * * * * * * * * * * * * * * * * * * * * * * * * * * * * * * * * //

dimensions      [0 2 -2 0 0 0 0];

internalField   nonuniform List<scalar> 
243000
(
0.0745611
0.0833508
0.0862592
0.0870071
0.0860158
0.0837872
0.0806282
0.0768232
0.0726049
0.0682079
0.06378
0.05943
0.0551706
0.0510957
0.0472603
0.0438014
0.0408283
0.0385397
0.0375423
0.0364604
0.0354772
0.0342802
0.0325091
0.0300053
0.0287544
0.0260691
0.023898
0.022239
0.0187817
0.0199359
0.112289
0.125793
0.128777
0.128217
0.125424
0.121143
0.115901
0.1101
0.103995
0.0978095
0.0916534
0.0856293
0.0797601
0.0742032
0.0690554
0.0644737
0.0605653
0.0576348
0.0558143
0.0548154
0.0540573
0.0529757
0.051029
0.0479384
0.0439014
0.0389383
0.0337263
0.0282345
0.0231447
0.0239249
0.130439
0.145014
0.149252
0.149015
0.146058
0.141324
0.135445
0.128874
0.121915
0.114845
0.10779
0.100887
0.0941903
0.0878999
0.0821393
0.077094
0.0728745
0.0698009
0.0678719
0.0668376
0.0660762
0.0649361
0.0628007
0.0593308
0.054585
0.048797
0.0422859
0.0350509
0.0285966
0.0256984
0.138784
0.154389
0.160023
0.160904
0.158669
0.154376
0.148685
0.142086
0.134927
0.127529
0.120071
0.112738
0.105617
0.0989538
0.0929071
0.0876958
0.0834332
0.0804254
0.0785552
0.0774958
0.0766249
0.0753048
0.0729244
0.0691264
0.063926
0.0575156
0.0501846
0.0418433
0.0343698
0.0293973
0.140058
0.155715
0.163631
0.166287
0.165338
0.16204
0.157057
0.150917
0.144008
0.136696
0.129208
0.121784
0.114549
0.107797
0.101714
0.0965588
0.0924406
0.0896273
0.0878859
0.0868108
0.085789
0.0842367
0.0815936
0.0775182
0.0720025
0.0651938
0.0573723
0.0484092
0.0401136
0.0341395
0.136641
0.152312
0.162096
0.166738
0.167507
0.165529
0.161603
0.156243
0.149901
0.142978
0.13574
0.12848
0.121368
0.114747
0.108811
0.103877
0.100034
0.097495
0.0959151
0.0948315
0.0936517
0.091855
0.0889552
0.0846475
0.0789149
0.0718709
0.063771
0.0544888
0.0455765
0.0385689
0.12949
0.145721
0.157156
0.163678
0.166254
0.165876
0.163143
0.158716
0.153178
0.146873
0.140098
0.133198
0.126387
0.12006
0.114412
0.10982
0.106338
0.104117
0.102717
0.101635
0.100308
0.09828
0.0951457
0.0906463
0.0847689
0.0776048
0.0693717
0.0599554
0.0506342
0.0427937
0.119523
0.136677
0.149614
0.157959
0.162368
0.163616
0.162306
0.159072
0.154372
0.148782
0.142634
0.136246
0.129872
0.123951
0.118699
0.114532
0.111466
0.109584
0.108371
0.107304
0.105853
0.103625
0.100289
0.0956383
0.0896699
0.0824663
0.0742001
0.0647914
0.0552418
0.0467922
0.107908
0.126016
0.140306
0.15032
0.156498
0.159358
0.159522
0.157546
0.153953
0.149218
0.143668
0.137887
0.132046
0.126614
0.121833
0.118141
0.115523
0.113982
0.112959
0.111924
0.11038
0.107992
0.104495
0.0997352
0.0937209
0.0865341
0.0783285
0.0689408
0.0593229
0.0505174
0.0970419
0.115201
0.130213
0.141477
0.149218
0.153625
0.15524
0.154579
0.152107
0.148304
0.143606
0.138412
0.133113
0.128224
0.123956
0.120766
0.118601
0.117392
0.116558
0.115572
0.113971
0.111469
0.10786
0.103035
0.0970176
0.0899094
0.0817456
0.0724134
0.0628915
0.0539045
0.0873797
0.104661
0.120242
0.132439
0.14116
0.146889
0.149861
0.150489
0.149164
0.146342
0.142453
0.137979
0.133301
0.128933
0.125197
0.122511
0.120787
0.119894
0.119244
0.118324
0.116704
0.114138
0.110468
0.105627
0.0996637
0.0926161
0.0845081
0.0752629
0.0659629
0.0569227
0.0798682
0.094567
0.110261
0.123356
0.133131
0.139792
0.143779
0.145562
0.145363
0.143527
0.140486
0.136727
0.132678
0.128899
0.125672
0.123472
0.122162
0.121562
0.12109
0.120252
0.118651
0.116072
0.112395
0.107597
0.101694
0.0947196
0.0866848
0.0776252
0.0685947
0.0595925
0.0757943
0.085557
0.100339
0.114101
0.124959
0.132664
0.137562
0.140128
0.140925
0.140047
0.137851
0.134827
0.131407
0.128192
0.125477
0.123734
0.122805
0.122472
0.122167
0.121426
0.119878
0.117339
0.113722
0.108985
0.10316
0.0962734
0.0883314
0.0796398
0.0708628
0.0619378
0.076491
0.0790169
0.0909466
0.104704
0.116537
0.12537
0.131282
0.134701
0.136169
0.136098
0.134701
0.132398
0.129605
0.126934
0.124702
0.123378
0.122786
0.122694
0.122547
0.12191
0.120456
0.117999
0.114454
0.109814
0.104103
0.0973261
0.0895025
0.0812739
0.0727839
0.0639724
0.0826479
0.0770071
0.0833131
0.0955474
0.107893
0.117821
0.124837
0.129197
0.131418
0.131951
0.131198
0.129559
0.12737
0.125215
0.123433
0.122484
0.122183
0.122302
0.122299
0.121772
0.120398
0.118029
0.114601
0.1101
0.104552
0.0979229
0.090416
0.0825925
0.0743875
0.0657094
0.0935031
0.0816531
0.0796439
0.087676
0.099333
0.110038
0.11816
0.123545
0.126601
0.127797
0.127574
0.126444
0.124795
0.123123
0.121747
0.121127
0.121069
0.121368
0.121502
0.121092
0.119847
0.117598
0.114294
0.109932
0.104534
0.0981006
0.091069
0.0836259
0.0756967
0.0671626
0.107604
0.0929292
0.0827404
0.0831808
0.0917596
0.102278
0.111274
0.117701
0.121665
0.12359
0.123947
0.123237
0.121991
0.120738
0.11972
0.119377
0.119521
0.119968
0.12023
0.119942
0.118836
0.116756
0.113608
0.109411
0.104184
0.0980653
0.0914813
0.0843969
0.0767312
0.0683428
0.12376
0.108559
0.0934098
0.0848506
0.0869988
0.0952958
0.104401
0.111694
0.116586
0.119296
0.120276
0.12004
0.119114
0.118151
0.117429
0.11731
0.117614
0.118178
0.118555
0.118393
0.117438
0.115538
0.112601
0.108592
0.103568
0.0978848
0.0916917
0.0849335
0.0775116
0.0692636
0.13991
0.125455
0.109043
0.0940561
0.0873804
0.0905488
0.0981326
0.105709
0.111395
0.114901
0.11654
0.116819
0.11626
0.115486
0.11496
0.115003
0.115424
0.116077
0.116557
0.11652
0.115724
0.114015
0.111307
0.107527
0.102864
0.0975775
0.0917228
0.0852613
0.0780597
0.0699425
0.156446
0.142741
0.126679
0.108979
0.0947118
0.0899329
0.0935748
0.10019
0.106236
0.110436
0.112737
0.113552
0.1134
0.112868
0.11244
0.112548
0.113038
0.113748
0.114312
0.114399
0.113766
0.112258
0.109791
0.106333
0.102085
0.0971657
0.0916201
0.0854155
0.0784036
0.0703959
0.173245
0.160108
0.144689
0.126577
0.107969
0.0951763
0.0922056
0.0959409
0.101435
0.106011
0.108894
0.110242
0.110517
0.110271
0.109989
0.110084
0.110556
0.111284
0.111907
0.11211
0.111639
0.110342
0.108177
0.105125
0.101258
0.0966808
0.0914196
0.0854306
0.0785773
0.0706547
0.190122
0.177364
0.162446
0.144681
0.124499
0.105956
0.0953925
0.0940108
0.0975444
0.10186
0.105097
0.106917
0.107614
0.107684
0.10759
0.107726
0.108177
0.108862
0.109502
0.1098
0.109504
0.108462
0.106613
0.103928
0.100424
0.096168
0.0911675
0.0853669
0.0786291
0.0707569
0.207176
0.194503
0.179801
0.162385
0.141957
0.120388
0.103299
0.0954273
0.0952872
0.098362
0.101521
0.103655
0.104731
0.105122
0.105248
0.105475
0.10594
0.106603
0.107255
0.107635
0.107495
0.106686
0.105132
0.102787
0.099633
0.0956895
0.0909336
0.0852908
0.0786225
0.0707515
0.22375
0.211066
0.196457
0.179308
0.159074
0.136335
0.114863
0.100577
0.0954136
0.096045
0.0984648
0.100622
0.10197
0.102661
0.103026
0.103388
0.103902
0.104566
0.105231
0.105681
0.105679
0.105082
0.103803
0.101776
0.0989602
0.0953237
0.0908019
0.0852925
0.078647
0.0707175
0.239492
0.22683
0.212314
0.195374
0.175457
0.152532
0.128716
0.109256
0.098541
0.0955812
0.0964468
0.098191
0.0996243
0.10056
0.10118
0.101724
0.102326
0.103013
0.103692
0.104191
0.1043
0.103885
0.102845
0.1011
0.0985707
0.095207
0.0909159
0.0855383
0.0788746
0.0707862
0.254847
0.242233
0.227835
0.211141
0.191629
0.169007
0.144296
0.121372
0.105482
0.0981736
0.0965855
0.0973717
0.0986591
0.0997928
0.100717
0.101521
0.102268
0.103002
0.103667
0.104142
0.104275
0.103931
0.103018
0.101455
0.0991435
0.0960028
0.0918831
0.0865545
0.0797197
0.0712728
0.271281
0.258928
0.244829
0.228549
0.209643
0.187769
0.163282
0.138711
0.118845
0.107067
0.102386
0.101702
0.102667
0.104083
0.10551
0.106739
0.107702
0.108444
0.108949
0.109166
0.109018
0.108424
0.107318
0.105629
0.103249
0.100054
0.0958454
0.0902731
0.0829327
0.0736417
0.292949
0.28129
0.267996
0.252827
0.235523
0.215745
0.193419
0.169847
0.148585
0.133804
0.126462
0.124515
0.125476
0.127669
0.130044
0.13191
0.132991
0.133382
0.133126
0.132298
0.130945
0.129133
0.126874
0.124121
0.120714
0.116492
0.111244
0.104486
0.0955261
0.0838989
0.33725
0.32771
0.317568
0.306775
0.295095
0.281992
0.266868
0.250037
0.233144
0.220228
0.213411
0.211979
0.213852
0.217501
0.220986
0.223204
0.223679
0.222778
0.220663
0.217536
0.213619
0.209164
0.204318
0.199023
0.192694
0.18526
0.177046
0.167194
0.154667
0.13885
0.503971
0.501951
0.502383
0.502615
0.502008
0.499979
0.495934
0.490184
0.481237
0.473306
0.468123
0.465669
0.465069
0.467117
0.469094
0.470324
0.469834
0.469245
0.468367
0.467612
0.466836
0.466274
0.465806
0.465182
0.461254
0.454725
0.448948
0.440757
0.42942
0.414498
0.109507
0.126771
0.133101
0.135122
0.134077
0.130842
0.126078
0.120316
0.113915
0.107184
0.100296
0.0934715
0.0867975
0.0805311
0.0747865
0.0698394
0.0658413
0.0631667
0.0618756
0.0614311
0.0606286
0.0583702
0.0540194
0.0475019
0.039323
0.0302462
0.024793
0.0224364
0.021058
0.0210883
0.17067
0.195542
0.200985
0.198499
0.191661
0.182465
0.172065
0.161183
0.150249
0.139582
0.129298
0.119579
0.110417
0.102091
0.0946983
0.0885348
0.08365
0.0806967
0.0798016
0.0803717
0.0809199
0.079962
0.0762437
0.069306
0.0596901
0.0483125
0.0370682
0.0305245
0.0334118
0.0284104
0.201536
0.230198
0.239409
0.238782
0.232765
0.223568
0.212545
0.20055
0.188151
0.175815
0.163751
0.152246
0.141343
0.131455
0.122777
0.115692
0.110209
0.107006
0.106
0.106454
0.106809
0.105528
0.10118
0.0931502
0.0818393
0.0681191
0.0534627
0.0404932
0.037621
0.0369451
0.214255
0.244571
0.256562
0.258642
0.254972
0.247618
0.237829
0.226513
0.214325
0.201824
0.18933
0.177239
0.165685
0.155204
0.146122
0.138882
0.133455
0.1304
0.129359
0.129492
0.129288
0.127339
0.122269
0.113385
0.100993
0.0858367
0.06916
0.0522084
0.042398
0.0380574
0.214094
0.242546
0.258121
0.264532
0.264188
0.25961
0.251956
0.242265
0.231205
0.219432
0.207358
0.195477
0.184026
0.173657
0.164807
0.157963
0.15304
0.150402
0.149421
0.149185
0.148315
0.14561
0.139854
0.130369
0.117377
0.101499
0.0838141
0.0648273
0.0503876
0.0419726
0.207301
0.233262
0.251235
0.260899
0.264262
0.262783
0.257666
0.250173
0.24078
0.230322
0.219247
0.208142
0.197336
0.187589
0.179421
0.173364
0.169244
0.167193
0.166332
0.165728
0.16419
0.160738
0.154364
0.144475
0.131231
0.115132
0.097112
0.0773477
0.0603081
0.048655
0.194931
0.218472
0.237827
0.250574
0.257485
0.259453
0.257428
0.252042
0.244485
0.235787
0.22614
0.216239
0.206472
0.19772
0.190543
0.185546
0.182426
0.181056
0.18036
0.179424
0.177267
0.173124
0.166217
0.156069
0.142815
0.126848
0.108945
0.0891463
0.0708705
0.0568801
0.177797
0.198792
0.219629
0.235402
0.24581
0.250879
0.251615
0.248977
0.243978
0.237075
0.228918
0.220574
0.212122
0.204625
0.198654
0.194897
0.19289
0.192244
0.191747
0.190544
0.18785
0.183116
0.175772
0.16548
0.152384
0.136793
0.119319
0.0999318
0.0813036
0.0657355
0.156274
0.175852
0.198298
0.216962
0.230662
0.238467
0.241978
0.242223
0.239693
0.23494
0.228781
0.221913
0.214875
0.208778
0.204161
0.201739
0.20089
0.200967
0.200704
0.199311
0.196192
0.190988
0.183326
0.173005
0.160198
0.145148
0.128319
0.109655
0.0912493
0.074625
0.136557
0.153899
0.1765
0.197036
0.213401
0.223702
0.230062
0.23298
0.232962
0.230408
0.226115
0.220825
0.215302
0.210616
0.207414
0.206358
0.206642
0.207407
0.207412
0.20592
0.202502
0.196971
0.189129
0.178908
0.166507
0.152127
0.136027
0.118187
0.100342
0.0831394
0.121361
0.134759
0.15593
0.177771
0.195765
0.207965
0.216836
0.222156
0.224405
0.223976
0.221467
0.217793
0.213754
0.21054
0.208715
0.208991
0.21032
0.211742
0.212035
0.210543
0.206965
0.201268
0.193412
0.183445
0.171581
0.157829
0.142452
0.125689
0.10845
0.0910702
0.110674
0.118715
0.137095
0.159004
0.178318
0.192694
0.203341
0.210519
0.214684
0.216052
0.215276
0.213183
0.210626
0.208818
0.208323
0.20982
0.212105
0.214146
0.214737
0.213332
0.209741
0.204066
0.196406
0.186809
0.175427
0.162316
0.147738
0.132145
0.11555
0.0984085
0.104486
0.106408
0.120588
0.141045
0.161133
0.177564
0.190058
0.198875
0.20434
0.207213
0.207981
0.207375
0.206225
0.205753
0.206465
0.209038
0.212173
0.21478
0.215676
0.214419
0.210994
0.205512
0.198121
0.188963
0.178148
0.16574
0.152128
0.137502
0.121605
0.10482
0.10526
0.0991343
0.107337
0.124421
0.144307
0.162573
0.176865
0.187164
0.194018
0.198001
0.200035
0.200722
0.200857
0.201577
0.203343
0.206834
0.210662
0.213795
0.215015
0.21396
0.210662
0.205359
0.198375
0.189914
0.179831
0.168238
0.1558
0.141937
0.126673
0.110288
0.112347
0.0996392
0.100074
0.111638
0.128945
0.147907
0.163775
0.175424
0.183561
0.188828
0.191879
0.193588
0.194794
0.196521
0.199174
0.203402
0.207777
0.211371
0.212934
0.212157
0.209215
0.2043
0.197732
0.189815
0.180609
0.170091
0.158634
0.14551
0.130817
0.114827
0.126109
0.10811
0.0999273
0.104324
0.117113
0.134383
0.150955
0.163788
0.173124
0.179572
0.183749
0.186302
0.188321
0.190828
0.194182
0.198951
0.203729
0.2077
0.209619
0.2092
0.206705
0.20237
0.196398
0.189136
0.180729
0.171434
0.160748
0.148299
0.134106
0.118474
0.146948
0.125503
0.109812
0.104249
0.110483
0.123372
0.13897
0.1525
0.162864
0.170379
0.175595
0.179087
0.181733
0.184759
0.188605
0.193717
0.198756
0.203011
0.205288
0.205291
0.20333
0.199653
0.194524
0.188049
0.18066
0.172279
0.16227
0.150404
0.136625
0.121288
0.174543
0.15123
0.130219
0.115231
0.11087
0.117164
0.12916
0.142148
0.153057
0.161426
0.167557
0.171913
0.175283
0.178597
0.182722
0.187986
0.193144
0.197592
0.200204
0.200698
0.199334
0.196422
0.192197
0.18685
0.180462
0.172754
0.163328
0.151937
0.138468
0.123336
0.208056
0.1838
0.159701
0.137399
0.122297
0.118148
0.123584
0.133821
0.144243
0.153005
0.159827
0.164931
0.168971
0.172709
0.176898
0.182131
0.18728
0.191832
0.194761
0.195798
0.195096
0.193102
0.189956
0.185691
0.180146
0.173023
0.164071
0.153031
0.139753
0.124712
0.246598
0.221796
0.195888
0.168897
0.144715
0.129238
0.124724
0.129235
0.137383
0.14563
0.152716
0.15836
0.162982
0.16715
0.171601
0.17671
0.181761
0.186324
0.189595
0.191253
0.191333
0.190211
0.188037
0.184755
0.179905
0.173287
0.164694
0.153863
0.140635
0.125566
0.289068
0.263884
0.236696
0.206743
0.176179
0.150468
0.135024
0.130355
0.133764
0.14013
0.14674
0.15257
0.15762
0.162241
0.167032
0.172267
0.177377
0.181969
0.185512
0.187663
0.18843
0.188061
0.186781
0.184262
0.179985
0.173839
0.165472
0.154677
0.141325
0.126089
0.334291
0.308789
0.280508
0.248444
0.21366
0.180191
0.154262
0.139234
0.135079
0.137629
0.142762
0.148231
0.153512
0.158577
0.163829
0.169363
0.17467
0.179378
0.183092
0.185601
0.186918
0.187218
0.186646
0.18488
0.18125
0.175368
0.166922
0.155869
0.142119
0.126453
0.381303
0.355521
0.326285
0.292558
0.254903
0.216128
0.181719
0.156575
0.143507
0.140065
0.142178
0.146681
0.15194
0.157474
0.163387
0.169477
0.175138
0.180017
0.183815
0.186528
0.188195
0.188953
0.188929
0.187672
0.184546
0.178895
0.170139
0.158229
0.143551
0.127007
0.429709
0.40385
0.373978
0.339112
0.299646
0.257559
0.217161
0.183535
0.161464
0.150904
0.148555
0.151027
0.156045
0.16223
0.169242
0.17631
0.182489
0.187636
0.191452
0.194065
0.195629
0.196292
0.196143
0.194788
0.19164
0.185902
0.176615
0.163541
0.146864
0.128503
0.480984
0.455683
0.426005
0.391084
0.351257
0.307984
0.26438
0.224952
0.195407
0.177805
0.170466
0.170269
0.175082
0.182558
0.191781
0.200676
0.207719
0.212992
0.21635
0.217939
0.218109
0.217134
0.215251
0.21231
0.20775
0.20068
0.189945
0.174649
0.154963
0.13294
0.541595
0.518387
0.490876
0.458345
0.421101
0.380141
0.337578
0.297033
0.26419
0.242411
0.231769
0.230426
0.236882
0.248194
0.262267
0.274848
0.283214
0.287806
0.288765
0.286434
0.281559
0.274967
0.267282
0.258691
0.248812
0.236759
0.22116
0.200734
0.174379
0.145212
0.631406
0.61356
0.592258
0.566845
0.537754
0.505682
0.471775
0.438907
0.411479
0.393315
0.385834
0.389328
0.402776
0.422735
0.44526
0.463377
0.473213
0.475864
0.471255
0.460387
0.44463
0.425677
0.404795
0.382653
0.359236
0.333862
0.305053
0.270891
0.229468
0.182845
0.798587
0.789796
0.779026
0.765761
0.751323
0.736055
0.720025
0.703607
0.689882
0.682887
0.685147
0.69862
0.721235
0.749392
0.777355
0.798054
0.808162
0.808953
0.799251
0.780849
0.755067
0.724
0.689167
0.651162
0.6099
0.564949
0.514843
0.456709
0.3875
0.309181
1.04267
1.04075
1.04608
1.05257
1.06028
1.06543
1.06491
1.06108
1.05547
1.05471
1.06177
1.07636
1.09522
1.11609
1.1326
1.14232
1.14536
1.14187
1.13095
1.11403
1.09208
1.06633
1.03741
1.00472
0.966825
0.922662
0.870045
0.805538
0.725684
0.632945
1.14824
1.15237
1.1738
1.19603
1.20984
1.21369
1.20942
1.20227
1.19586
1.19625
1.2013
1.2075
1.21085
1.21247
1.20615
1.19574
1.18684
1.17696
1.16661
1.15639
1.14744
1.14001
1.13396
1.12827
1.12081
1.11124
1.09695
1.07733
1.05234
1.01905
0.14531
0.166683
0.172443
0.174334
0.17282
0.16864
0.162564
0.155241
0.147107
0.138545
0.129752
0.121019
0.112413
0.104311
0.0968704
0.0905471
0.085669
0.0834324
0.0843939
0.0868889
0.0878607
0.0853303
0.0786152
0.0679765
0.0543522
0.0390505
0.0267906
0.0228609
0.0213523
0.0227245
0.230944
0.262863
0.270857
0.268267
0.25975
0.248029
0.234704
0.220729
0.206582
0.192615
0.178923
0.165733
0.152973
0.14109
0.130262
0.121038
0.113896
0.111336
0.114196
0.120271
0.125214
0.125853
0.12017
0.107974
0.0904755
0.0695514
0.0482463
0.0346685
0.0337086
0.0307227
0.277648
0.313748
0.32644
0.326371
0.318882
0.307038
0.292736
0.277146
0.260902
0.244498
0.228169
0.212269
0.196834
0.182483
0.169596
0.158813
0.150641
0.147799
0.150807
0.157215
0.162482
0.163292
0.157127
0.143484
0.123413
0.0985659
0.0718643
0.0488767
0.0413797
0.0407829
0.304513
0.339327
0.35425
0.357263
0.352229
0.342217
0.329001
0.313851
0.297494
0.280541
0.263359
0.246422
0.229912
0.214595
0.201074
0.190021
0.181876
0.179123
0.181821
0.187512
0.191972
0.192166
0.185481
0.171217
0.150095
0.1235
0.0940379
0.0651925
0.0485972
0.0430537
0.315756
0.346068
0.363326
0.369911
0.368169
0.361042
0.350013
0.336459
0.321113
0.304756
0.287852
0.270977
0.254462
0.239227
0.226045
0.215588
0.208127
0.205697
0.207882
0.212374
0.215541
0.214722
0.207482
0.193008
0.171764
0.144811
0.114334
0.0825564
0.0592907
0.0479788
0.314956
0.339957
0.358449
0.36855
0.371098
0.36754
0.359398
0.348289
0.334676
0.319745
0.303933
0.287929
0.272211
0.257848
0.245714
0.236472
0.230131
0.228155
0.229731
0.232824
0.234486
0.232438
0.224599
0.210135
0.189299
0.162847
0.132519
0.0997756
0.0724884
0.0562615
0.307783
0.327203
0.345057
0.357596
0.363963
0.364584
0.360285
0.351544
0.340034
0.327247
0.313161
0.298656
0.284356
0.271496
0.260942
0.253393
0.248476
0.247023
0.247968
0.249614
0.249705
0.246333
0.237862
0.223518
0.203391
0.177965
0.148546
0.116139
0.0868198
0.0668349
0.294771
0.307499
0.32427
0.338941
0.34903
0.353658
0.353204
0.348032
0.339889
0.329052
0.316685
0.304179
0.29178
0.280903
0.272375
0.26687
0.263569
0.262676
0.263014
0.263287
0.2618
0.257126
0.248026
0.233855
0.214614
0.190519
0.162573
0.13125
0.101337
0.0785522
0.273471
0.28175
0.297828
0.314548
0.328181
0.336728
0.340084
0.338673
0.333616
0.325668
0.316053
0.305522
0.295223
0.286688
0.280517
0.277293
0.275704
0.275382
0.275186
0.274189
0.271229
0.26535
0.255685
0.241743
0.223482
0.200893
0.174411
0.144646
0.11518
0.0905125
0.246495
0.251819
0.267747
0.286486
0.303315
0.315491
0.322515
0.324723
0.323002
0.318118
0.311237
0.303258
0.295519
0.289397
0.285781
0.284975
0.285091
0.285336
0.2847
0.282593
0.278334
0.271422
0.261323
0.247711
0.230343
0.20907
0.184271
0.156494
0.127866
0.102116
0.221375
0.223038
0.237739
0.257402
0.27654
0.291672
0.302019
0.307509
0.309031
0.307269
0.303269
0.298043
0.292912
0.289496
0.288503
0.290162
0.291881
0.292689
0.291732
0.288709
0.283382
0.275673
0.26535
0.252028
0.235402
0.215439
0.192403
0.166637
0.139184
0.113096
0.199964
0.196623
0.209033
0.22871
0.249433
0.267065
0.280131
0.288354
0.292769
0.293952
0.29283
0.290394
0.287993
0.287332
0.288953
0.292993
0.296234
0.297598
0.296423
0.292721
0.286581
0.278431
0.267949
0.254892
0.239031
0.220375
0.199321
0.175126
0.148904
0.123084
0.183239
0.173934
0.182882
0.201395
0.222848
0.242372
0.257752
0.268524
0.275356
0.279059
0.280581
0.280862
0.281197
0.283185
0.287356
0.29361
0.298269
0.3002
0.298901
0.294796
0.288215
0.279581
0.269112
0.256534
0.241534
0.224365
0.204937
0.182092
0.157028
0.1317
0.172235
0.156986
0.160979
0.176663
0.197615
0.218287
0.235551
0.248487
0.257561
0.26351
0.267263
0.269982
0.272862
0.277344
0.28392
0.292172
0.298141
0.300644
0.299327
0.294793
0.287911
0.279213
0.268986
0.257174
0.243194
0.227624
0.209315
0.187655
0.163627
0.138898
0.170561
0.149019
0.145807
0.156426
0.174986
0.195601
0.214115
0.228811
0.239815
0.247762
0.253562
0.258287
0.263397
0.27012
0.278861
0.288857
0.295959
0.299109
0.297902
0.293441
0.286571
0.278015
0.268271
0.257197
0.244616
0.230121
0.212669
0.191964
0.168813
0.144699
0.177273
0.152474
0.140553
0.143371
0.156977
0.175557
0.194183
0.210044
0.222605
0.23226
0.239851
0.246324
0.253225
0.261842
0.272427
0.283887
0.291992
0.295816
0.294895
0.290709
0.284248
0.276209
0.267231
0.257173
0.245796
0.231962
0.215154
0.195175
0.172721
0.149183
0.193083
0.165968
0.147336
0.140612
0.146482
0.160121
0.176942
0.192915
0.206449
0.217433
0.226519
0.234516
0.242815
0.252906
0.264939
0.277568
0.28655
0.291088
0.290648
0.286974
0.281198
0.274128
0.266292
0.257301
0.246578
0.233277
0.216916
0.197439
0.175496
0.152455
0.219812
0.191124
0.167302
0.151241
0.145955
0.152049
0.164242
0.178538
0.192042
0.203775
0.21398
0.223223
0.232717
0.243807
0.256859
0.270364
0.280113
0.285409
0.285667
0.282799
0.278067
0.272415
0.265678
0.257371
0.247142
0.234207
0.218113
0.198921
0.177301
0.154649
0.256786
0.226789
0.199268
0.175571
0.159454
0.154002
0.158577
0.168552
0.180391
0.19195
0.202744
0.212892
0.223378
0.235277
0.248912
0.263009
0.273471
0.279556
0.280797
0.279173
0.275805
0.271304
0.265312
0.257561
0.247696
0.234957
0.218939
0.19982
0.178322
0.155925
0.302027
0.270803
0.24047
0.211176
0.185769
0.168606
0.162104
0.164871
0.17291
0.182912
0.193541
0.204133
0.215497
0.228182
0.242376
0.256732
0.267952
0.274949
0.277534
0.277023
0.274731
0.271007
0.265741
0.258444
0.248703
0.235883
0.219668
0.200382
0.178794
0.156486
0.353437
0.320874
0.288083
0.254604
0.22222
0.194831
0.176824
0.169613
0.171191
0.178039
0.187533
0.198071
0.210117
0.223657
0.238614
0.25352
0.265503
0.273305
0.276909
0.277469
0.276094
0.273111
0.268405
0.26135
0.251172
0.237667
0.2208
0.20099
0.179029
0.15659
0.409171
0.375165
0.340075
0.303264
0.265817
0.230665
0.202444
0.184708
0.177866
0.179346
0.18645
0.196521
0.209063
0.22351
0.239941
0.255894
0.268763
0.277242
0.281667
0.283007
0.282154
0.279342
0.274575
0.267325
0.256622
0.241837
0.223399
0.202356
0.179504
0.156563
0.468168
0.432835
0.395784
0.356396
0.315418
0.274965
0.239032
0.211929
0.196242
0.19119
0.194402
0.203314
0.216549
0.232669
0.251336
0.269117
0.28302
0.292199
0.297146
0.298669
0.297419
0.293706
0.287735
0.279167
0.267171
0.2508
0.230091
0.206242
0.181325
0.157028
0.531123
0.495091
0.456966
0.416212
0.373418
0.330168
0.289619
0.255845
0.232652
0.221271
0.220096
0.227693
0.242116
0.261243
0.284155
0.305051
0.320335
0.330109
0.334806
0.335137
0.331584
0.324835
0.315437
0.303391
0.288101
0.268737
0.24469
0.217155
0.187711
0.159816
0.602502
0.567422
0.530188
0.490316
0.448316
0.405489
0.36429
0.328185
0.301314
0.286176
0.282518
0.290489
0.308299
0.333035
0.363172
0.388818
0.405935
0.415549
0.418215
0.414432
0.405062
0.391307
0.374335
0.354757
0.332321
0.306374
0.276142
0.24176
0.205021
0.170324
0.695017
0.66417
0.631311
0.596087
0.558973
0.52124
0.484947
0.452997
0.42918
0.416315
0.415388
0.428437
0.453581
0.487334
0.526683
0.55763
0.57592
0.583833
0.581784
0.570347
0.550991
0.525456
0.49568
0.463008
0.427689
0.38935
0.34701
0.300113
0.249162
0.199955
0.837005
0.814584
0.790365
0.76436
0.737047
0.710018
0.68487
0.663916
0.649984
0.645504
0.653168
0.674943
0.709087
0.751357
0.796663
0.82888
0.845395
0.849674
0.841529
0.822259
0.793408
0.756895
0.714492
0.667797
0.617257
0.562623
0.502974
0.436427
0.362346
0.286506
1.05938
1.04922
1.03798
1.02478
1.01042
0.996633
0.984178
0.974625
0.97012
0.973517
0.987877
1.01433
1.0509
1.09169
1.1292
1.14913
1.15605
1.15284
1.13999
1.11886
1.09078
1.05686
1.0175
0.972374
0.920389
0.860201
0.791031
0.709859
0.614212
0.509801
1.30459
1.30153
1.30858
1.31672
1.31985
1.31658
1.30926
1.30128
1.29632
1.29819
1.30898
1.32726
1.34957
1.36771
1.37326
1.35983
1.34547
1.32852
1.31197
1.29514
1.27986
1.26627
1.25365
1.23887
1.21846
1.18919
1.1445
1.08394
1.00443
0.909909
1.34445
1.3549
1.37703
1.39856
1.4114
1.41389
1.40639
1.39538
1.38662
1.3845
1.38726
1.39095
1.39139
1.38382
1.36273
1.32693
1.29867
1.27306
1.25404
1.24083
1.23504
1.23594
1.24297
1.25258
1.26121
1.26612
1.26411
1.25516
1.23696
1.21059
0.179579
0.204204
0.209316
0.20952
0.206973
0.201771
0.194506
0.185836
0.176218
0.166074
0.155578
0.14507
0.134563
0.124564
0.115275
0.107449
0.101996
0.102413
0.109832
0.118946
0.123153
0.120239
0.11049
0.0951093
0.0752854
0.0526072
0.0297099
0.0228253
0.0213933
0.0233335
0.28902
0.325795
0.332482
0.32935
0.319663
0.306185
0.290786
0.274501
0.257822
0.241079
0.224273
0.207645
0.191024
0.175143
0.160343
0.147782
0.139414
0.141962
0.156173
0.174146
0.186055
0.187684
0.178074
0.158459
0.130678
0.0970301
0.0627568
0.0375809
0.0307173
0.0314754
0.351597
0.39182
0.404508
0.404509
0.396075
0.38252
0.365966
0.347626
0.328189
0.308155
0.287719
0.267235
0.246734
0.227205
0.209372
0.194512
0.184999
0.188029
0.20347
0.222839
0.235951
0.238353
0.22838
0.206874
0.175544
0.136193
0.0941757
0.0559216
0.0404172
0.0409963
0.39166
0.42815
0.444517
0.447777
0.442032
0.430409
0.414828
0.39656
0.376489
0.355252
0.333248
0.310925
0.288581
0.267392
0.248477
0.23308
0.22365
0.226838
0.241575
0.259735
0.271905
0.273958
0.26383
0.242079
0.209878
0.168565
0.122738
0.0763317
0.0502214
0.0441658
0.415048
0.446117
0.463631
0.469854
0.467684
0.459114
0.445662
0.428649
0.409205
0.388079
0.365839
0.343031
0.320208
0.298737
0.280023
0.265235
0.256645
0.259879
0.273008
0.288702
0.298844
0.299844
0.289506
0.268124
0.236451
0.195381
0.148488
0.0980789
0.0632227
0.0498103
0.424065
0.445898
0.463981
0.475152
0.477701
0.472951
0.462455
0.447541
0.429727
0.409739
0.388288
0.366058
0.34383
0.323165
0.305628
0.292305
0.28508
0.288281
0.299363
0.311973
0.319507
0.318943
0.308223
0.287431
0.257018
0.217507
0.171479
0.120099
0.0791959
0.0588566
0.421405
0.437546
0.454975
0.468361
0.474991
0.474753
0.467597
0.455345
0.440104
0.422124
0.402323
0.381574
0.360835
0.341901
0.326344
0.315186
0.309709
0.312803
0.321606
0.330884
0.335542
0.333062
0.321801
0.301639
0.272845
0.235692
0.191323
0.140814
0.0969017
0.0706616
0.411502
0.420721
0.436242
0.451417
0.461853
0.465883
0.463264
0.455414
0.442578
0.426592
0.409143
0.390679
0.372215
0.355773
0.342943
0.334498
0.330983
0.333868
0.340319
0.346251
0.347967
0.343434
0.331521
0.311957
0.285023
0.250085
0.208002
0.159699
0.114875
0.0841058
0.392487
0.395412
0.409361
0.426182
0.440165
0.448378
0.450363
0.446443
0.437441
0.425119
0.410546
0.394331
0.37879
0.36549
0.356007
0.350686
0.349172
0.351735
0.355874
0.358631
0.357447
0.350919
0.338334
0.319409
0.293693
0.261117
0.22193
0.176824
0.13225
0.0981828
0.366703
0.363417
0.376132
0.394648
0.411847
0.424121
0.4305
0.430877
0.426009
0.417387
0.406383
0.393936
0.38135
0.371682
0.366005
0.364073
0.364426
0.366563
0.368515
0.368378
0.364457
0.356159
0.343076
0.324295
0.299817
0.269589
0.233707
0.191574
0.148362
0.112215
0.336938
0.328953
0.340102
0.359243
0.379048
0.394984
0.405552
0.410015
0.409474
0.404885
0.39786
0.389207
0.380456
0.374875
0.373306
0.37488
0.376831
0.378475
0.378459
0.37567
0.3694
0.359694
0.345974
0.327442
0.304194
0.276477
0.243344
0.203793
0.162388
0.125663
0.308628
0.294839
0.303603
0.322545
0.344112
0.36306
0.377313
0.385556
0.389054
0.388628
0.385742
0.381229
0.376751
0.375499
0.378224
0.383203
0.386472
0.387602
0.385785
0.380747
0.372623
0.361853
0.347635
0.329494
0.307595
0.281948
0.250674
0.213527
0.174099
0.137654
0.283272
0.263135
0.268617
0.286335
0.308716
0.329938
0.347189
0.359103
0.366303
0.369661
0.370856
0.37058
0.370671
0.373918
0.380955
0.389091
0.393431
0.394039
0.390664
0.383858
0.374562
0.362864
0.348514
0.330976
0.310603
0.286007
0.256056
0.220962
0.183496
0.147888
0.26162
0.23617
0.237347
0.252491
0.27443
0.29698
0.316564
0.331654
0.342237
0.349221
0.354129
0.357882
0.362554
0.370453
0.381703
0.392623
0.397809
0.397921
0.393325
0.385459
0.375075
0.36307
0.349012
0.332642
0.313172
0.288854
0.25979
0.226351
0.190702
0.156249
0.247369
0.217422
0.212449
0.223373
0.243124
0.265651
0.286697
0.304206
0.317821
0.328089
0.336404
0.343835
0.352904
0.365472
0.380673
0.393944
0.399791
0.39947
0.394126
0.385356
0.374804
0.363001
0.349856
0.33447
0.314981
0.290728
0.262171
0.229961
0.195905
0.162744
0.243851
0.211167
0.197552
0.202081
0.217245
0.237783
0.25897
0.277942
0.293895
0.307034
0.318407
0.329155
0.34229
0.359312
0.378103
0.393293
0.399724
0.399133
0.393464
0.384675
0.37442
0.363491
0.351328
0.336066
0.316238
0.291803
0.263427
0.232067
0.199338
0.167477
0.250747
0.217374
0.197407
0.192113
0.19981
0.215726
0.23507
0.254184
0.271539
0.286871
0.300913
0.314701
0.33135
0.352392
0.374342
0.391073
0.398029
0.397545
0.392269
0.38402
0.374858
0.364868
0.352987
0.337309
0.317021
0.292196
0.263701
0.232896
0.201232
0.170603
0.268737
0.234937
0.209897
0.195865
0.193846
0.202269
0.217153
0.234461
0.251936
0.268562
0.28472
0.301136
0.321061
0.345299
0.36997
0.387977
0.395588
0.395777
0.39159
0.385009
0.376821
0.366879
0.354696
0.338398
0.317466
0.292132
0.263432
0.232791
0.201855
0.172328
0.300094
0.265416