/*--------------------------------*- C++ -*----------------------------------*\
| =========                 |                                                 |
| \\      /  F ield         | OpenFOAM: The Open Source CFD Toolbox           |
|  \\    /   O peration     | Version:  5.0                                   |
|   \\  /    A nd           | Web:      www.OpenFOAM.org                      |
|    \\/     M anipulation  |                                                 |
\*---------------------------------------------------------------------------*/
FoamFile
{
    version     2.0;
    format      ascii;
    class       volScalarField;
    location    "1700/air";
    object      nut;
}
// * * * * * * * * * * * * * * * * * * * * * * * * * * * * * * * * * * * * * //

dimensions      [0 2 -1 0 0 0 0];

internalField   nonuniform List<scalar> 
243000
(
0.000144139
0.00014671
0.000143808
0.000139327
0.000133829
0.000127824
0.000121597
0.000115374
0.000109316
0.000103578
9.82359e-05
9.33326e-05
8.8842e-05
8.48027e-05
8.12206e-05
7.81893e-05
7.57963e-05
7.42352e-05
7.3416e-05
7.39138e-05
7.45314e-05
7.50175e-05
7.49779e-05
7.41096e-05
0.000326944
7.20809e-05
6.92242e-05
0.000301746
0.000275487
0.000318912
0.000627305
0.000663944
0.000671763
0.000670294
0.000662947
0.000651533
0.000637278
0.00062112
0.000603651
0.000585421
0.000566694
0.00054775
0.000528639
0.000509884
0.000491868
0.00047525
0.000460584
0.000449251
0.000442217
0.000437886
0.000434806
0.000430432
0.000422424
0.000409417
0.000393259
0.00036705
0.00034206
0.000313919
0.000284417
0.000289209
0.00067612
0.000712892
0.000723224
0.000722641
0.000715427
0.000703732
0.000688936
0.000672012
0.000653613
0.000634371
0.000614572
0.000594564
0.000574484
0.000554959
0.000536449
0.000519687
0.000505222
0.000494392
0.000487472
0.000483623
0.000480785
0.000476562
0.000468611
0.000455448
0.000436935
0.00041291
0.000384345
0.000349982
0.000316158
0.000300132
0.000697447
0.000735602
0.000748888
0.000750936
0.000745695
0.00073553
0.00072184
0.000705634
0.000687621
0.0006685
0.00064865
0.000628525
0.00060834
0.000588826
0.000570532
0.000554268
0.000540579
0.000530676
0.000524386
0.00052075
0.000517736
0.000513191
0.000504962
0.0004916
0.000472726
0.000448366
0.000418798
0.00038241
0.000346617
0.000320648
0.000700676
0.000738791
0.000757316
0.000763418
0.000761226
0.000753585
0.0007419
0.000727245
0.000710397
0.000692121
0.000672891
0.000653263
0.000633551
0.000614579
0.000596963
0.0005816
0.000569006
0.000560204
0.000554643
0.000551149
0.000547815
0.000542768
0.000534132
0.000520585
0.000501694
0.000477362
0.000447789
0.000411303
0.000374452
0.000345568
0.000692112
0.000730704
0.000753783
0.00076448
0.000766225
0.000761674
0.000752575
0.000739982
0.0007248
0.000707859
0.0006897
0.000670992
0.000652144
0.000634087
0.000617439
0.000603237
0.000591909
0.000584267
0.000579419
0.000576043
0.000572366
0.000566782
0.000557711
0.000544001
0.000525229
0.000501215
0.000472102
0.000436363
0.000399129
0.000367256
0.000673797
0.000714752
0.000742239
0.00075746
0.000763376
0.00076249
0.00075617
0.00074583
0.000732694
0.000717448
0.000700695
0.000683213
0.000665501
0.000648608
0.000633133
0.00062025
0.000610271
0.000603777
0.000599607
0.000596346
0.000592358
0.000586274
0.000576797
0.000562955
0.000544369
0.000520832
0.0004924
0.000457729
0.000420684
0.000386804
0.000647385
0.000692251
0.00072424
0.000744136
0.000754424
0.000757299
0.000754248
0.000746683
0.000735557
0.000722108
0.000707023
0.000690996
0.000674622
0.000659038
0.00064489
0.000633415
0.000624808
0.000619421
0.000615886
0.000612754
0.000608516
0.000602012
0.00059219
0.000578257
0.000559893
0.000536905
0.000509253
0.000475832
0.0004394
0.000404434
0.000615146
0.000664734
0.000701377
0.000725944
0.000740685
0.000747401
0.000747769
0.000743109
0.000734577
0.00072318
0.00070959
0.000695155
0.000680255
0.000666088
0.000653351
0.000643319
0.000636072
0.000631723
0.000628786
0.000625806
0.000621395
0.000614571
0.00060449
0.000590523
0.00057241
0.000549996
0.000523234
0.000490832
0.000455333
0.000420198
0.000583372
0.000635585
0.000675695
0.000704289
0.000723273
0.000733854
0.000737685
0.000736097
0.000730174
0.000720977
0.000709452
0.000696487
0.000683008
0.000670315
0.000659024
0.000650426
0.000644489
0.000641101
0.000638724
0.000635925
0.000631427
0.000624395
0.000614154
0.000600223
0.000582401
0.000560628
0.000534531
0.000503044
0.00046882
0.000434034
0.00055358
0.000605833
0.000649326
0.000681434
0.000703487
0.000717603
0.000724808
0.000726309
0.000723092
0.000716206
0.000706611
0.000695412
0.000683498
0.000672174
0.000662318
0.000655111
0.000650401
0.000647894
0.000646041
0.000643455
0.000638959
0.000631833
0.000621544
0.000607734
0.0005903
0.000569013
0.000543494
0.00051285
0.000480127
0.000446003
0.000529242
0.000575896
0.000621814
0.000657668
0.0006832
0.000700064
0.000709963
0.000714337
0.000713834
0.000709299
0.00070173
0.00069226
0.00068191
0.000672096
0.000663579
0.000657676
0.000654094
0.000652388
0.000651023
0.000648682
0.000644273
0.000637172
0.000626952
0.000613387
0.000596294
0.000575447
0.000550457
0.000520871
0.000489622
0.000456335
0.000515528
0.000547783
0.000593197
0.000632535
0.000661916
0.000681995
0.000694456
0.000700892
0.000702868
0.000700661
0.000695133
0.000687446
0.000678648
0.00067026
0.00066307
0.000658377
0.000655814
0.000654826
0.000653917
0.000651843
0.000647604
0.000640648
0.000630652
0.000617339
0.000600584
0.000580157
0.000555668
0.000527604
0.000497661
0.000465224
0.00051782
0.000526408
0.000564768
0.00060595
0.00063924
0.000662995
0.000678429
0.000687194
0.000690916
0.000690726
0.000687157
0.000681238
0.000673988
0.000666971
0.000661029
0.000657436
0.000655767
0.000655424
0.000654936
0.00065315
0.000649171
0.000642457
0.000632688
0.000619692
0.000603333
0.000583328
0.000559346
0.000532998
0.000504367
0.000472801
0.000538175
0.000519599
0.000540537
0.000578865
0.000615093
0.000642743
0.000661579
0.00067302
0.000678765
0.000680129
0.000678174
0.000673907
0.000668163
0.00066245
0.000657664
0.000655056
0.000654163
0.000654382
0.00065428
0.000652786
0.000649022
0.000642548
0.000633103
0.000620508
0.00060464
0.000585121
0.000562216
0.000537317
0.000509898
0.000479174
0.000572366
0.000534922
0.000528434
0.000554503
0.000590206
0.000621166
0.000643659
0.000658145
0.000666219
0.000669348
0.000668752
0.000665767
0.000661385
0.000656903
0.000653166
0.000651425
0.000651184
0.000651889
0.000652154
0.000650969
0.000647543
0.000641382
0.000632261
0.000620043
0.000604596
0.00058566
0.000564256
0.000540677
0.000514369
0.000484442
0.000613958
0.000570557
0.00053847
0.000540046
0.00056726
0.000598881
0.000624637
0.000642403
0.000653115
0.000658248
0.000659185
0.000657276
0.000653924
0.000650519
0.000647718
0.000646716
0.000647017
0.00064813
0.000648741
0.000647881
0.000644816
0.000639093
0.000630372
0.00061858
0.000603589
0.000585568
0.000565542
0.000543172
0.000517876
0.00048868
0.000658457
0.000616651
0.000572024
0.000545312
0.000552312
0.000578077
0.000605051
0.00062581
0.000639349
0.000646721
0.000649359
0.000648705
0.000646174
0.000643524
0.000641502
0.000641104
0.000641847
0.00064329
0.000644222
0.000643698
0.000641027
0.000635761
0.000627579
0.000616266
0.000601807
0.000585037
0.0005662
0.000544902
0.000520506
0.000491963
0.000700104
0.000662907
0.000617993
0.000574004
0.0005534
0.000563453
0.000586607
0.000608822
0.000624963
0.000634706
0.000639203
0.000639951
0.000638395
0.000636235
0.000634733
0.000634782
0.000635861
0.000637563
0.000638785
0.0006386
0.000636346
0.000631569
0.000623976
0.000613247
0.000599772
0.000584127
0.000566304
0.000545958
0.000522346
0.000494369
0.000740318
0.00070711
0.000666094
0.000617794
0.000576018
0.000561449
0.000572793
0.000592716
0.00061033
0.000622261
0.000628694
0.000630947
0.000630505
0.000628992
0.000627751
0.000627988
0.00062927
0.000631154
0.000632624
0.000632781
0.000630956
0.0006267
0.000619723
0.000609845
0.000597507
0.000582901
0.000565992
0.000546456
0.000523499
0.000495971
0.000779046
0.000748894
0.000711881
0.000665795
0.000614923
0.000577462
0.000568519
0.000579991
0.000596379
0.000609676
0.000617894
0.00062169
0.000622447
0.000621723
0.000620883
0.00062109
0.000622342
0.000624302
0.000625959
0.000626441
0.00062505
0.000621345
0.000615169
0.000606385
0.000595091
0.000581452
0.000565377
0.000546508
0.000524081
0.000496886
0.0008161
0.000788217
0.000754309
0.000711828
0.000660288
0.000609187
0.000578158
0.000574077
0.000584817
0.000597621
0.000607034
0.00061225
0.000614225
0.000614396
0.000614085
0.000614419
0.00061563
0.000617494
0.00061922
0.000619977
0.000619066
0.00061605
0.000610724
0.000602937
0.000592644
0.000579915
0.000564602
0.000546307
0.000524257
0.00049725
0.000851906
0.000825419
0.000793583
0.000754136
0.000705069
0.000649299
0.000601542
0.000578307
0.000577977
0.000587261
0.000596617
0.000602844
0.000605947
0.000607051
0.000607376
0.000607981
0.00060925
0.000611075
0.000612858
0.000613858
0.000613384
0.000611006
0.000606485
0.000599635
0.000590318
0.000578478
0.000563882
0.000546067
0.000524238
0.000497236
0.000885302
0.00085983
0.000829519
0.000792462
0.000746376
0.000690951
0.00063425
0.000593617
0.000578303
0.000580281
0.000587563
0.00059396
0.000597912
0.000599911
0.000600942
0.00060195
0.000603381
0.000605231
0.000607074
0.000608289
0.000608208
0.000606421
0.00060266
0.000596694
0.000588334
0.00057738
0.000563479
0.000546076
0.000524322
0.000497121
0.000915896
0.000891344
0.000862338
0.000827199
0.000783875
0.000730843
0.000671371
0.000618622
0.000587632
0.000578837
0.000581495
0.000586738
0.000590996
0.000593747
0.000595544
0.000597097
0.000598805
0.00060074
0.000602642
0.000604014
0.000604255
0.000602983
0.000599895
0.000594729
0.00058719
0.000577037
0.00056384
0.000546867
0.000525083
0.000497367
0.000944777
0.000921092
0.000893288
0.000859922
0.000819203
0.000769302
0.000710826
0.000651964
0.000607897
0.000586574
0.000581878
0.000584268
0.000588119
0.000591475
0.000594184
0.000596511
0.00059865
0.000600733
0.000602599
0.000603902
0.000604214
0.000603148
0.000600429
0.000595799
0.000588916
0.000579462
0.000566844
0.000550114
0.000527893
0.000499082
0.000974737
0.000952282
0.000925986
0.000894656
0.000856836
0.000810877
0.000756136
0.000696938
0.00064518
0.000612484
0.000599034
0.000597076
0.000599917
0.000604036
0.000608144
0.000611646
0.000614357
0.000616416
0.000617789
0.000618337
0.000617848
0.000616092
0.000612877
0.000607972
0.000601025
0.000591595
0.000578964
0.000561827
0.000538437
0.000507323
0.00101289
0.000992531
0.000968787
0.000940961
0.000908174
0.000869185
0.000822962
0.000771181
0.000721337
0.000684602
0.000665643
0.000660556
0.000663129
0.000668909
0.000675095
0.000679903
0.000682656
0.000683622
0.000682921
0.000680739
0.00067719
0.000672424
0.000666455
0.000659123
0.000649953
0.000638426
0.000623818
0.000604506
0.000577924
0.000541539
0.00108677
0.00107129
0.00105458
0.0010365
0.00101656
0.00099372
0.000966688
0.0009357
0.00090355
0.000878213
0.000864573
0.000861713
0.000865544
0.000872914
0.000879886
0.000884287
0.000885215
0.000883413
0.000879186
0.000872902
0.00086497
0.00085586
0.000845845
0.000834768
0.00082134
0.000805293
0.000787187
0.000764907
0.00073561
0.000696902
0.00132852
0.00132585
0.00132641
0.00132672
0.00132591
0.00132323
0.00131786
0.00131019
0.00129818
0.00128745
0.0012804
0.00127706
0.00127625
0.00127907
0.00128179
0.00128347
0.00128279
0.00128198
0.00128077
0.00127973
0.00127865
0.00127787
0.00127721
0.00127634
0.00127092
0.00126188
0.00125383
0.00124231
0.00122619
0.00120465
0.000174682
0.000180934
0.000178637
0.000173629
0.000167086
0.000159733
0.000152053
0.000144383
0.000136925
0.000129839
0.000123184
0.000117045
0.000111429
0.000106457
0.000102164
9.87216e-05
9.62425e-05
9.50273e-05
9.51903e-05
9.63435e-05
9.75696e-05
9.7918e-05
9.66394e-05
9.32199e-05
8.74687e-05
7.92563e-05
0.000322691
0.00030589
0.000309949
7.67736e-05
0.000673616
0.000759059
0.000733867
0.000682464
0.00062559
0.000571938
0.000524109
0.00048214
0.000445495
0.000413763
0.000385973
0.000361848
0.000340216
0.000321557
0.00030519
0.00029153
0.000279607
0.000271695
0.000267919
0.00026892
0.000273744
0.000279944
0.000282478
0.000276833
0.000263021
0.000240545
0.000229946
0.000269121
0.000334835
0.0003068
0.00106632
0.00123035
0.00123917
0.00118675
0.00111282
0.00103471
0.000960619
0.000892876
0.000832011
0.000778246
0.000730422
0.000688443
0.000650499
0.000617667
0.000589162
0.000565046
0.000543048
0.000526418
0.000513815
0.000506938
0.000506514
0.000510057
0.000509332
0.000498152
0.000472326
0.00043174
0.000383688
0.000351344
0.000377268
0.000418047
0.00131719
0.00153686
0.00158219
0.00154995
0.00148363
0.00140358
0.00132155
0.0012428
0.00116951
0.00110298
0.00104264
0.000989013
0.000940534
0.000898532
0.000862769
0.000832835
0.000805253
0.000782591
0.000761812
0.000745827
0.000736504
0.000732811
0.000725819
0.000706395
0.000669654
0.00061446
0.000544841
0.000469474
0.000437075
0.000448838
0.00144183
0.0016763
0.00177154
0.00178398
0.00174119
0.00167361
0.00159575
0.00151705
0.00144067
0.00136936
0.00130343
0.00124425
0.00119062
0.00114451
0.00110636
0.00107499
0.00104578
0.00101969
0.00099264
0.000968302
0.000949947
0.000937905
0.000923373
0.000896224
0.000851117
0.00078588
0.00070306
0.000603793
0.000527293
0.000497231
0.00151362
0.0017484
0.00187654
0.00192038
0.00190788
0.00185944
0.00179253
0.00172205
0.00164923
0.00157956
0.00151369
0.00145396
0.00139995
0.00135413
0.00131748
0.00128814
0.00126014
0.00123251
0.00120087
0.00116957
0.00114302
0.00112288
0.00110081
0.00106742
0.00101638
0.000944718
0.000854371
0.000742993
0.000638701
0.000572683
0.00154073
0.00176642
0.00191053
0.0019822
0.00199878
0.00197671
0.00193203
0.00186921
0.001802
0.00173952
0.00167831
0.00162225
0.00157171
0.0015299
0.00149768
0.00147305
0.00144821
0.00142048
0.00138562
0.00134882
0.00131526
0.00128744
0.00125903
0.00122084
0.001166
0.00109096
0.000996583
0.000879681
0.000759898
0.000665775
0.00152363
0.0017273
0.0018845
0.00198291
0.00202941
0.00203345
0.00201043
0.00196627
0.00191562
0.00185972
0.00180237
0.001754
0.0017096
0.00167479
0.00164931
0.00163141
0.00161112
0.00158438
0.00154745
0.00150657
0.00146741
0.00143395
0.00140026
0.00135783
0.00130076
0.00122461
0.0011293
0.00101063
0.000883169
0.000767451
0.00144119
0.00163396
0.00180652
0.00193234
0.0020097
0.0020408
0.00204143
0.00202025
0.00198566
0.00194293
0.00189848
0.00185503
0.00181762
0.00179165
0.00177487
0.00176506
0.00175053
0.00172538
0.00168753
0.00164384
0.00160161
0.00156378
0.00152613
0.00148103
0.00142208
0.00134632
0.00125251
0.00113578
0.00100467
0.000871075
0.00131637
0.00149463
0.00168453
0.00183837
0.00194776
0.00200774
0.00203526
0.00203738
0.00202258
0.00199511
0.00196249
0.00192869
0.00190064
0.00188351
0.00187675
0.00187608
0.00186771
0.00184471
0.00180704
0.0017619
0.00171734
0.00167619
0.00163588
0.00158982
0.00153149
0.00145755
0.00136599
0.00125169
0.00111965
0.000971193
0.00119607
0.00133469
0.00152177
0.0017046
0.00185112
0.00194104
0.00199771
0.00202448
0.00203002
0.00201984
0.00200058
0.00197864
0.00196048
0.0019539
0.00195709
0.00196614
0.00196386
0.00194372
0.00190718
0.00186224
0.00181658
0.00177298
0.00173129
0.00168548
0.00163016
0.00155741
0.00146761
0.00135854
0.00122516
0.00106485
0.00109878
0.00118117
0.00134461
0.00153783
0.00171313
0.00184418
0.00193356
0.00198595
0.00201247
0.00202002
0.00201576
0.00200688
0.00200021
0.00200439
0.00201775
0.00203619
0.00204046
0.00202405
0.00198955
0.00194599
0.00190049
0.00185647
0.00181454
0.00176966
0.00171527
0.00164538
0.00155795
0.00145465
0.00131982
0.00115445
0.00103198
0.00105441
0.00117663
0.00135933
0.00154997
0.00171389
0.00183939
0.00192542
0.00197306
0.00199919
0.00201074
0.00201595
0.0020217
0.00203734
0.00206036
0.00208773
0.00209895
0.00208718
0.00205556
0.00201393
0.00197047
0.00192737
0.00188458
0.00184021
0.00178728
0.00172067
0.00163819
0.00153697
0.00140169
0.0012325
0.00102142
0.000971786
0.00103908
0.00118971
0.00137825
0.00156325
0.00171833
0.00183532
0.00191382
0.00196016
0.00198846
0.00200803
0.00202703
0.00205394
0.00208629
0.00212217
0.00213997
0.0021341
0.00210648
0.00206719
0.00202368
0.0019794
0.001937
0.00189596
0.0018465
0.00178394
0.00170915
0.00160709
0.00147059
0.00129827
0.00105737
0.000956061
0.000956762
0.00105444
0.00121749
0.00140632
0.00158092
0.00172315
0.00182966
0.00190358
0.00195123
0.00198552
0.0020176
0.0020554
0.00209708
0.00214093
0.00216533
0.00216619
0.00214367
0.00210755
0.00206701
0.00202379
0.0019805
0.00193812
0.00189404
0.00183833
0.00176746
0.00166484
0.00152669
0.00135157
0.00114469
0.00100171
0.00093594
0.000973734
0.00108966
0.00125929
0.00143877
0.00159803
0.00172758
0.00182655
0.00189839
0.00195006
0.00199499
0.00204335
0.00209415
0.00214542
0.00217652
0.00218453
0.00216819
0.00213624
0.00209936
0.0020596
0.00201758
0.00197546
0.0019332
0.00188532
0.00181484
0.00171095
0.00157059
0.00139275
0.00129123
0.00111843
0.000997453
0.000955481
0.00101506
0.00114026
0.00130538
0.00147012
0.00161532
0.00173488
0.00182868
0.00190154
0.00196087
0.0020193
0.00207883
0.00213709
0.00217494
0.00219034
0.0021811
0.00215435
0.00212208
0.0020863
0.0020494
0.00200937
0.00196999
0.00192377
0.00185195
0.0017463
0.0016032
0.00142253
0.00149491
0.00130322
0.00114025
0.00103053
0.00100263
0.00107056
0.00119735
0.00135126
0.0015017
0.00163517
0.00174695
0.00183872
0.00191583
0.00198466
0.00205262
0.00211752
0.00216209
0.00218506
0.00218348
0.00216339
0.00213657
0.00210608
0.00207464
0.0020411
0.00200417
0.00195482
0.00188045
0.00177229
0.00162583
0.00144195
0.00174804
0.00154563
0.00135436
0.00118996
0.00108432
0.00106433
0.00113347
0.00125555
0.00139691
0.001535
0.0016588
0.00176577
0.00185856
0.00194134
0.00201732
0.00208849
0.00213977
0.00217034
0.00217713
0.00216524
0.0021448
0.00212152
0.00209741
0.00207043
0.00203297
0.00197978
0.00190205
0.00179063
0.00164007
0.00145242
0.00203842
0.00183058
0.00162099
0.00141793
0.00124701
0.00114378
0.00112883
0.00119848
0.00131287
0.00144302
0.00157063
0.00168739
0.00179228
0.00188691
0.00197416
0.00205183
0.00210997
0.00214785
0.00216408
0.00216219
0.00214984
0.00213427
0.00211721
0.002095
0.00205607
0.00199975
0.00191897
0.00180346
0.00164795
0.0014558
0.00234901
0.00213926
0.00191811
0.0016893
0.00147087
0.00129606
0.00119913
0.00119099
0.00126094
0.00136864
0.00148935
0.00160856
0.00172005
0.00182345
0.00191894
0.00200476
0.00207135
0.00211691
0.00214283
0.002151
0.00214795
0.00214021
0.00212973
0.00210941
0.00207213
0.00201682
0.00193305
0.00181277
0.00165163
0.00145431
0.00265696
0.00244794
0.00222061
0.00197621
0.0017268
0.00149922
0.00133012
0.00124456
0.00124847
0.00131879
0.00142107
0.00153303
0.00164404
0.00175006
0.00184788
0.00193694
0.00200901
0.00206307
0.00209852
0.00211784
0.00212575
0.00212684
0.00212386
0.00211099
0.00207997
0.00202542
0.00193935
0.00181717
0.00165155
0.00144918
0.00293295
0.00272748
0.00249968
0.00224896
0.00198305
0.0017222
0.00149902
0.00134475
0.0012808
0.00129667
0.00136492
0.00145927
0.00155913
0.00165727
0.0017476
0.00183134
0.00190323
0.00196137
0.00200449
0.00203558
0.00205708
0.00207177
0.00208252
0.0020832
0.00206562
0.00201982
0.00193539
0.00180945
0.00164409
0.0014399
0.00314011
0.00294312
0.00272225
0.00247515
0.00220627
0.00192985
0.00167235
0.00146505
0.00133796
0.00129475
0.00131425
0.00137219
0.00144505
0.00151991
0.00158937
0.00165643
0.00171781
0.00177408
0.00182347
0.00186686
0.00190503
0.00193907
0.00196976
0.00199142
0.00199615
0.00197296
0.00190637
0.00178995
0.00162368
0.0014223
0.00323713
0.00305669
0.0028525
0.00262028
0.00236144
0.00208523
0.00181165
0.00156899
0.00138944
0.00128635
0.0012489
0.0012541
0.00128393
0.00132245
0.00136481
0.00141
0.00145596
0.00150434
0.00155333
0.0016036
0.00165481
0.00170601
0.00175664
0.00180237
0.0018355
0.00184476
0.0018144
0.0017273
0.00158342
0.00139257
0.00319236
0.00304048
0.00286495
0.00265995
0.00242444
0.00216427
0.00189501
0.00164159
0.00143411
0.0012897
0.00120598
0.0011669
0.00116244
0.00117805
0.00120706
0.0012413
0.00127505
0.00130976
0.00134704
0.00138617
0.00142772
0.00147262
0.00152084
0.00157002
0.00161436
0.00164419
0.00164484
0.00159892
0.00148779
0.00133
0.0030215
0.00291282
0.00278093
0.00261914
0.00242533
0.00220508
0.00197272
0.00175071
0.00156286
0.00142383
0.00133275
0.00128549
0.00127603
0.00129107
0.00132137
0.00135354
0.00137913
0.00140157
0.00142146
0.00143887
0.00145544
0.00147309
0.00149273
0.00151369
0.00153291
0.00154405
0.00153557
0.00149205
0.00139551
0.00124032
0.00285839
0.00280203
0.00272303
0.0026161
0.00247978
0.0023216
0.00215472
0.00199459
0.0018564
0.00174861
0.0016749
0.00163859
0.0016324
0.00164725
0.00167392
0.00170113
0.00172086
0.00173795
0.00174994
0.00175845
0.00176427
0.00176866
0.00177172
0.0017721
0.00176704
0.00175209
0.00171769
0.00164923
0.00152913
0.00134568
0.00277694
0.00275664
0.00273024
0.00268267
0.00261125
0.0025202
0.00241598
0.00231135
0.00221531
0.0021348
0.00207705
0.00204394
0.00203124
0.00203459
0.00204636
0.00206178
0.00207455
0.00208851
0.002101
0.00211378
0.00212693
0.00214031
0.00215288
0.00216219
0.00216503
0.00215856
0.00213427
0.00208013
0.00198427
0.0018388
0.00276612
0.00276547
0.00276409
0.00274558
0.00270855
0.00266103
0.00260272
0.00253977
0.0024768
0.00242381
0.00237943
0.00234703
0.00232628
0.00231719
0.00231477
0.00232018
0.00232811
0.00234046
0.0023564
0.00237693
0.00240129
0.00242819
0.00245568
0.00248158
0.0025032
0.00252192
0.00252889
0.00251826
0.00249197
0.00244496
0.000201216
0.000207468
0.00020333
0.000197218
0.000189696
0.000181342
0.000172657
0.000164005
0.000155599
0.000147616
0.000140109
0.000133179
0.000126808
0.000121157
0.000116271
0.000112406
0.000109778
0.000109206
0.00011115
0.000114563
0.000117441
0.000118379
0.000116571
0.000111502
0.0001028
9.00374e-05
0.000372785
0.000314345
7.3833e-05
7.95737e-05
0.000866604
0.000992999
0.000995792
0.000940755
0.000869326
0.000798955
0.000735065
0.000678879
0.0006295
0.000586263
0.000547438
0.000512726
0.000479955
0.000450422
0.000422606
0.00039765
0.000374718
0.000362518
0.000362389
0.00037438
0.000392876
0.000410688
0.000416648
0.000403087
0.000369612
0.00032141
0.000279992
0.000287302
0.000282363
0.000325157
0.00138715
0.00162786
0.00168584
0.00164649
0.00156512
0.00147037
0.00137559
0.00128686
0.00120551
0.00113196
0.00106437
0.00100278
0.000944108
0.000890744
0.000841229
0.000795767
0.00075231
0.000723907
0.000709869
0.000713927
0.000731357
0.000752828
0.000755935
0.000729997
0.000673672
0.000587288
0.000485165
0.0004043
0.000390155
0.000478877
0.00176834
0.00205657
0.00215319
0.00214508
0.00207786
0.00198529
0.00188365
0.00178268
0.00168611
0.00159609
0.00151168
0.00143377
0.00135962
0.00129199
0.00123037
0.00117375
0.00111824
0.00107627
0.00104724
0.00103833
0.00104571
0.00106209
0.0010606
0.00102663
0.000952643
0.000840686
0.000703316
0.00056348
0.000488103
0.000528727
0.00202034
0.00231067
0.00244867
0.00247856
0.00243586
0.00235811
0.00226291
0.00216293
0.00206267
0.00196676
0.00187524
0.00179006
0.00170878
0.00163525
0.00156988
0.00150941
0.00144742
0.00139407
0.00135062
0.00132673
0.00132361
0.00133217
0.0013263
0.00128627
0.00120334
0.00107732
0.000919196
0.00074428
0.000613862
0.000593529
0.00217471
0.00244913
0.00261288
0.00267891
0.00267242
0.00261672
0.00253522
0.00244576
0.00234917
0.00225557
0.00216438
0.00207881
0.00199753
0.0019251
0.00186213
0.00180298
0.00173756
0.00167409
0.00161726
0.00157986
0.00156556
0.00156595
0.00155599
0.00151313
0.00142757
0.00129642
0.00112843
0.000933725
0.000765048
0.000693278
0.0022877
0.00253888
0.00270336
0.00279014
0.00281198
0.00278698
0.00273074
0.00264853
0.00255833
0.00247461
0.00238965
0.00230915
0.00223369
0.00216829
0.00211213
0.00205798
0.00199087
0.00191819
0.00184925
0.00179993
0.00177557
0.00176751
0.00175362
0.00171248
0.00162779
0.0014979
0.00132835
0.00112575
0.000932333
0.000819505
0.00235772
0.00256014
0.00271943
0.00282367
0.00287314
0.00287676
0.00284665
0.00278759
0.00272075
0.00264161
0.00255993
0.00248928
0.00242367
0.00237008
0.00232463
0.00227787
0.00221024
0.00212924
0.00204992
0.00199091
0.00195712
0.00194112
0.00192351
0.00188447
0.00180681
0.00168252
0.00151919
0.00131649
0.00110877
0.000960989
0.00233928
0.00251151
0.00266823
0.0027906
0.00286823
0.00290162
0.00289929
0.00286691
0.00281809
0.00275658
0.00269256
0.00262904
0.0025737
0.00253534
0.00250361
0.00246565
0.00239821
0.00231041
0.00222309
0.00215549
0.00211423
0.00209054
0.00206995
0.00203344
0.00196543
0.00185163
0.00169414
0.00149688
0.00128523
0.00110655
0.00225177
0.00240008
0.00255775
0.00270073
0.00280753
0.00287215
0.00289908
0.00289499
0.00286881
0.00282752
0.00278007
0.00273187
0.00269307
0.00266861
0.00265229
0.00262396
0.00255714
0.00246511
0.00237161
0.00229808
0.00225034
0.00222039
0.00219724
0.00216402
0.0021038
0.00200069
0.00185284
0.00166657
0.00145494
0.0012531
0.00214366
0.00225712
0.0024062
0.00256372
0.00269934
0.00279679
0.00285518
0.00287943
0.00287906
0.00286034
0.0028324
0.00280291
0.00278083
0.00277433
0.00277315
0.00275521
0.0026892
0.00259326
0.00249842
0.00242162
0.00236878
0.00233427
0.00230955
0.00227765
0.00222194
0.00212996
0.00199479
0.00182194
0.0016149
0.00139909
0.00203676
0.00209452
0.00222466
0.00239013
0.00255127
0.00268207
0.00277407
0.00282809
0.00285442
0.00286016
0.00285398
0.00284508
0.00284241
0.00285439
0.0028689
0.00286073
0.00279739
0.00270225
0.00260626
0.002529
0.00247229
0.00243621
0.00240766
0.00237536
0.00232353
0.00224151
0.0021227
0.00196046
0.00175952
0.00153854
0.00194356
0.00192944
0.00202875
0.00219147
0.00237165
0.00253327
0.00265905
0.00274615
0.00280108
0.00283196
0.00284874
0.00286201
0.00288053
0.00291046
0.00294148
0.00294228
0.00288403
0.00279241
0.00269762
0.00262251
0.00256481
0.0025228
0.00249111
0.00245947
0.0024116
0.00234066
0.00223566
0.00208229
0.00188723
0.00166345
0.00187397
0.00178899
0.00184227
0.00198542
0.00217238
0.00235829
0.00251582
0.00263584
0.00272153
0.00278031
0.00282101
0.00285684
0.00289649
0.00294502
0.00299222
0.00300203
0.00295168
0.00286619
0.00277489
0.00269835
0.00263859
0.00259427
0.00256075
0.00253204
0.00248865
0.00242973
0.00233399
0.00218779
0.00199756
0.00177222
0.00187555
0.00171257
0.00169753
0.00179776
0.00197182
0.00216896
0.00235188
0.00250252
0.0026189
0.00270644
0.00277374
0.00283225
0.00289299
0.00296005
0.00302249
0.00304209
0.00300168
0.0029258
0.00283985
0.00276777
0.00270792
0.00266141
0.00262736
0.00259756
0.00256143
0.00250799
0.00241747
0.00227712
0.00209045
0.00186395
0.0019394
0.00173349
0.00163143
0.00166245
0.00179671
0.00198348
0.00217864
0.00235354
0.00249817
0.00261401
0.0027081
0.00279072
0.00287198
0.00295712
0.00303388
0.00306439
0.00303652
0.00297267
0.00289415
0.00282723
0.00277104
0.00272553
0.00269256
0.00266171
0.00262963
0.00257624
0.00248772
0.00235194
0.0021666
0.00193855
0.00207749
0.00183813
0.00167118
0.00161665
0.00168267
0.00182761
0.00201324
0.00219967
0.00236612
0.00250738
0.00262716
0.00273359
0.00283482
0.00293776
0.00302769
0.00307026
0.00305696
0.00300755
0.00293855
0.00287823
0.00282723
0.00278718
0.00275607
0.00272435
0.00268967
0.00263484
0.00254569
0.0024113
0.00222619
0.0019962
0.00230684
0.0020458
0.00182679
0.00168673
0.00164988
0.00173178
0.00187875
0.00205609
0.00223211
0.00239225
0.00253436
0.00266272
0.00278263
0.00290241
0.0030043
0.00305978
0.00306243
0.00302968
0.00297263
0.00292084
0.00287707
0.00284424
0.00281376
0.00277889
0.00274113
0.00268368
0.00259215
0.00245624
0.00227056
0.0020377
0.00261228
0.00233918
0.00208428
0.00187433
0.00174385
0.00171959
0.00180213
0.00194169
0.00210813
0.00227572
0.00243356
0.00257958
0.0027159
0.00284869
0.0029614
0.00302997
0.0030496
0.00303475
0.00299323
0.00295143
0.00291651
0.00288913
0.00285736
0.00282221
0.00278289
0.00272279
0.00262785
0.00248844
0.00229978
0.0020639
0.00296298
0.00268487
0.00240763
0.00214847
0.00193817
0.00181341
0.00179453
0.00187385
0.0020068
0.00216531
0.00232819
0.00248377
0.00263215
0.00277144
0.0028909
0.00297089
0.00300766
0.00301086
0.00298835
0.00295776
0.00293158
0.00290758
0.00288428
0.00285592
0.00281711
0.00275415
0.00265449
0.00250976
0.00231604
0.00207657
0.00332129
0.00304247
0.00275287
0.0024629
0.00219589
0.00198659
0.00186987
0.00185872
0.00193498
0.00206667
0.00221915
0.00237167
0.0025214
0.00266254
0.00277675
0.00286222
0.00291392
0.00293559
0.00293222
0.00291844
0.00290494
0.00289325
0.00288116
0.00286023
0.00282417
0.00276471
0.00266674
0.00252052
0.00232233
0.00207786
0.00364593
0.00337
0.00307626
0.00277059
0.00246937
0.00220051
0.00200056
0.00189846
0.00189633
0.00197073
0.00209432
0.00222974
0.00236381
0.00248621
0.00259238
0.00267681
0.002741
0.0027775
0.00279439
0.00280139
0.00280758
0.00281402
0.00281916
0.0028152
0.0027895
0.00272986
0.00263641
0.00250186
0.00230866
0.00206548
0.00389489
0.00362678
0.00333733
0.00302914
0.00271299
0.0024093
0.00214936
0.00196666
0.0018803
0.00187979
0.00194441
0.00203759
0.0021406
0.0022382
0.00232215
0.00240033
0.0024681
0.00251689
0.00255339
0.00258283
0.00261276
0.00264238
0.00267059
0.00269034
0.00268933
0.00264916
0.00256274
0.00242784
0.00225412
0.00202837
0.00402956
0.00377726
0.00350203
0.00320397
0.00288948
0.00257247
0.00227713
0.00203423
0.00187049
0.00179077
0.00177846
0.00181184
0.00187079
0.00194013
0.00201054
0.0020818
0.00214575
0.00220055
0.00224793
0.00229431
0.00234035
0.00238756
0.00243493
0.00247647
0.00250114
0.00249291
0.00243334
0.00232153
0.00215662
0.00194702
0.00402577
0.00380063
0.00355191
0.00327758
0.00298076
0.00267085
0.00236646
0.00209438
0.00188262
0.00174419
0.00166997
0.00165352
0.00167994
0.00173144
0.00180097
0.00186802
0.00192544
0.00197461
0.00201982
0.00206295
0.00210461
0.00214764
0.00219242
0.00223507
0.00226699
0.00227507
0.00224259
0.00215508
0.00201447
0.00184118
0.00389449
0.0037115
0.00350529
0.00327159
0.00301139
0.00273251
0.0024511
0.0021916
0.00198012
0.00182733
0.00173177
0.00169909
0.00171436
0.00176124
0.00183028
0.00189214
0.00193922
0.00197605
0.00200852
0.00203416
0.00205575
0.00207597
0.00209611
0.0021145
0.00212543