/*--------------------------------*- C++ -*----------------------------------*\
| =========                 |                                                 |
| \\      /  F ield         | OpenFOAM: The Open Source CFD Toolbox           |
|  \\    /   O peration     | Version:  5.0                                   |
|   \\  /    A nd           | Web:      www.OpenFOAM.org                      |
|    \\/     M anipulation  |                                                 |
\*---------------------------------------------------------------------------*/
FoamFile
{
    version     2.0;
    format      ascii;
    class       volScalarField;
    location    "1750/air";
    object      alphat;
}
// * * * * * * * * * * * * * * * * * * * * * * * * * * * * * * * * * * * * * //

dimensions      [1 -1 -1 0 0 0 0];

internalField   nonuniform List<scalar> 
243000
(
0.000169226
0.000172154
0.000168696
0.000163413
0.000156952
0.000149906
0.000142605
0.00013531
0.000128207
0.000121474
0.000115204
0.000109449
0.00010418
9.94367e-05
9.52212e-05
9.16315e-05
8.87595e-05
0.000396196
8.65218e-05
8.77083e-05
8.73815e-05
8.71024e-05
8.67567e-05
8.51039e-05
8.5647e-05
8.31973e-05
8.04368e-05
0.000347683
0.000317948
8.44958e-05
0.00073691
0.00077985
0.000788906
0.000787086
0.000778397
0.000764962
0.000748198
0.000729209
0.000708676
0.000687236
0.000665215
0.000642941
0.000620462
0.000598364
0.000577068
0.000557276
0.000539547
0.000527349
0.000516385
0.000505459
0.000504598
0.000498468
0.000488247
0.00047387
0.000448114
0.00042366
0.000394918
0.000361958
0.000328677
0.000344235
0.000794551
0.000837776
0.000849774
0.000848982
0.00084043
0.000826637
0.00080921
0.000789293
0.000767641
0.00074499
0.000721687
0.000698136
0.000674481
0.000651428
0.000629484
0.000609423
0.000591787
0.000578239
0.00056862
0.000562263
0.000557775
0.000551651
0.00054147
0.000525507
0.000503357
0.000475552
0.000442327
0.000402257
0.00036399
0.000355021
0.000820143
0.000864919
0.000880356
0.000882618
0.000876354
0.000864321
0.000848163
0.000829063
0.000807845
0.000785315
0.000761929
0.000738213
0.0007144
0.000691309
0.000669547
0.000649973
0.000633116
0.000620344
0.000611459
0.000605565
0.000600554
0.000593995
0.000583448
0.000567213
0.000544824
0.000516203
0.000481556
0.000439278
0.000398628
0.000372226
0.000824528
0.000869251
0.000890787
0.000897682
0.000894973
0.000885865
0.000872026
0.000854724
0.000834851
0.000813295
0.000790614
0.000767456
0.000744162
0.00072166
0.000700624
0.000682011
0.000666316
0.000654697
0.000646599
0.00064085
0.000635419
0.000628256
0.000617212
0.000600741
0.000578274
0.000549595
0.000514825
0.000472076
0.00043043
0.000398161
0.000814986
0.000860217
0.000887069
0.000899401
0.000901223
0.000895709
0.000884858
0.000869958
0.000852021
0.000832017
0.000810575
0.000788471
0.000766157
0.000744683
0.000724712
0.00070737
0.00069305
0.00068269
0.000675375
0.000669749
0.000663917
0.000656125
0.000644567
0.000627892
0.000605524
0.000577162
0.000542855
0.000500833
0.000458747
0.000423618
0.000793969
0.000841916
0.000873956
0.00089156
0.000898249
0.000896974
0.000889358
0.000877105
0.00086155
0.000843522
0.000823712
0.000803022
0.00078201
0.000761855
0.000743193
0.000727311
0.000714474
0.00070538
0.000698824
0.000693332
0.000687152
0.000678789
0.000666761
0.000649923
0.000627751
0.000599893
0.000566314
0.000525437
0.000483464
0.000445518
0.000763384
0.000815908
0.000853221
0.000876292
0.000888088
0.000891212
0.000887436
0.00087836
0.000865136
0.000849239
0.000831369
0.000812368
0.000792897
0.00077423
0.000757059
0.000742742
0.000731435
0.000723572
0.000717736
0.000712405
0.000705956
0.000697125
0.000684704
0.000667758
0.00064583
0.000618568
0.000585836
0.000546311
0.000504918
0.000465143
0.000725717
0.000783885
0.000826683
0.000855252
0.000872273
0.000879898
0.000880121
0.000874447
0.000864276
0.000850713
0.000834606
0.000817463
0.000799691
0.000782642
0.000767064
0.000754359
0.000744576
0.00073788
0.000732731
0.000727592
0.000720971
0.00071179
0.000699082
0.000682098
0.000660452
0.00063382
0.000602062
0.000563593
0.000523108
0.000482774
0.000688387
0.000749715
0.000796611
0.000830045
0.000852084
0.000864262
0.000868553
0.000866484
0.000859363
0.000848398
0.000834693
0.000819211
0.000803109
0.000787745
0.000773804
0.000762707
0.000754398
0.000748796
0.000744295
0.000739387
0.000732691
0.000723295
0.000710418
0.000693482
0.000672168
0.000646257
0.000615175
0.000577686
0.000538491
0.000498258
0.000653275
0.000714829
0.000765747
0.000803286
0.000828947
0.000845384
0.000853664
0.000855239
0.00085129
0.000843031
0.000831578
0.000818188
0.000803859
0.000790069
0.000777763
0.000768229
0.000761309
0.000756713
0.000752828
0.000748188
0.000741522
0.00073204
0.000719127
0.000702339
0.000681473
0.000656084
0.000625628
0.000589273
0.000551506
0.000511743
0.000624358
0.000679684
0.000733544
0.000775475
0.000805232
0.000824881
0.000836409
0.000841392
0.000840639
0.000835142
0.000826062
0.000814688
0.000802181
0.000790137
0.00077935
0.000771287
0.000765648
0.00076197
0.000758663
0.000754328
0.000747788
0.000738362
0.000725543
0.000709052
0.000688565
0.000663654
0.00063378
0.000599089
0.000562637
0.00052351
0.000607643
0.000646551
0.00070002
0.000746065
0.000780351
0.000803764
0.00081829
0.000825768
0.000827949
0.000825197
0.000818517
0.000809229
0.000798533
0.000788135
0.000778873
0.000772183
0.000767709
0.000764864
0.000762089
0.000758089
0.000751765
0.000742537
0.000729993
0.000713785
0.000693679
0.000669228
0.000639915
0.000607135
0.000572058
0.000533681
0.000609426
0.000621003
0.000666615
0.000714939
0.000753841
0.000781561
0.000799568
0.000809774
0.000814021
0.000813691
0.000809329
0.000802124
0.000793236
0.000784432
0.000776609
0.000771177
0.000767711
0.000765633
0.000763359
0.000759731
0.000753736
0.000744779
0.000732504
0.000716661
0.000696999
0.000673021
0.000644474
0.000613589
0.000579913
0.000542366
0.000632309
0.000612062
0.000637852
0.000683145
0.000725586
0.00075789
0.000779885
0.000793226
0.000799855
0.00080135
0.000798929
0.000793683
0.000786564
0.000779285
0.000772806
0.000768507
0.000765946
0.000764521
0.000762711
0.000759412
0.000753674
0.000745039
0.000733148
0.000717763
0.000698644
0.000675215
0.000648168
0.000618817
0.000586414
0.000549691
0.000671591
0.000628556
0.000622721
0.000654293
0.000696393
0.000732651
0.000758944
0.000775855
0.000785225
0.000788792
0.000787964
0.000784266
0.000778768
0.000772931
0.000767685
0.000764396
0.000762619
0.000761759
0.000760381
0.000757461
0.000752131
0.00074382
0.000732307
0.000717345
0.000698703
0.000675957
0.00065075
0.000622889
0.000591679
0.000555759
0.000719656
0.000668977
0.000632811
0.00063654
0.00066927
0.000706519
0.000736696
0.000757464
0.000769937
0.000775855
0.000776831
0.000774401
0.000770151
0.000765598
0.000761459
0.000759054
0.000757939
0.000757566
0.000756595
0.000754063
0.00074916
0.000741355
0.000730267
0.000715774
0.000697643
0.000676189
0.000652465
0.00062594
0.000595821
0.000560655
0.000771791
0.000722474
0.000670659
0.00064115
0.000651153
0.000681951
0.000713729
0.000738057
0.000753861
0.000762413
0.000765389
0.000764438
0.000761169
0.000757545
0.00075434
0.000752686
0.000752117
0.000752158
0.000751569
0.000749432
0.000744978
0.000737703
0.000727183
0.000713222
0.000695771
0.000675795
0.000653412
0.000628079
0.000598937
0.000564457
0.000820427
0.000776462
0.000723694
0.000673109
0.000650921
0.000664174
0.000691936
0.00071813
0.000737038
0.000748387
0.00075355
0.000754258
0.000752149
0.000749135
0.000746581
0.000745509
0.00074537
0.00074576
0.000745522
0.000743785
0.000739801
0.000733075
0.000723215
0.000709887
0.00069365
0.000674934
0.000653695
0.000629416
0.00060113
0.000567257
0.000867325
0.000828091
0.000779712
0.000723298
0.000675762
0.000660722
0.000675269
0.000699114
0.000719875
0.000733834
0.000741285
0.000743774
0.000742991
0.000740772
0.000738578
0.000737794
0.000737945
0.000738604
0.000738683
0.000737344
0.000733845
0.00072769
0.000718533
0.000706257
0.000691264
0.000673695
0.000653461
0.000630086
0.000602522
0.000569154
0.000912418
0.000876844
0.00083318
0.000779016
0.000720028
0.000677956
0.000669354
0.00068383
0.000703416
0.000719077
0.000728658
0.000732977
0.000733629
0.000732369
0.000730698
0.000729968
0.000730148
0.000730962
0.000731304
0.000730344
0.000727339
0.000721795
0.000713631
0.000702541
0.000688698
0.00067219
0.000652868
0.000630231
0.000603251
0.00057028
0.000955479
0.000922648
0.000882709
0.00083272
0.000772454
0.000713737
0.00067938
0.000676218
0.000689596
0.000704868
0.000715926
0.000721947
0.000724058
0.000723889
0.000722894
0.000722393
0.000722614
0.000723394
0.000723885
0.000723266
0.000720834
0.000716086
0.000708858
0.000698863
0.000686103
0.000670582
0.000652085
0.000630066
0.000603496
0.000570767
0.000997013
0.000965895
0.000928479
0.000882108
0.000824573
0.0007598
0.000705466
0.00068018
0.000681101
0.000692536
0.00070366
0.000710927
0.0007144
0.000715369
0.000715186
0.00071508
0.000715456
0.000716273
0.000716904
0.000716592
0.000714683
0.000710673
0.000704339
0.000695377
0.000683669
0.000669104
0.000651369
0.00062985
0.000603499
0.000570799
0.00103558
0.00100575
0.000970229
0.000926758
0.000872722
0.00080805
0.000742726
0.000697005
0.000680759
0.000684012
0.000692912
0.000700475
0.000705
0.000707069
0.000707785
0.00070823
0.000708886
0.000709821
0.000710603
0.000710572
0.000709139
0.000705814
0.000700323
0.00069236
0.00068167
0.000668046
0.00065103
0.00062993
0.000603608
0.000570728
0.00107084
0.00104216
0.00100825
0.00096712
0.000916389
0.000854419
0.000785459
0.000725233
0.000690794
0.000681795
0.000685557
0.000691906
0.000696873
0.000699889
0.000701575
0.00070274
0.000703825
0.000704968
0.000705905
0.000706109
0.000705066
0.000702326
0.000697567
0.000690453
0.000680655
0.000667885
0.000651622
0.000630938
0.0006045
0.000571131
0.00110403
0.00107644
0.00104401
0.00100504
0.000957435
0.000899129
0.000831109
0.000763359
0.000713532
0.000690128
0.000685551
0.000688783
0.000693394
0.000697209
0.000700053
0.000702218
0.000703927
0.00070535
0.000706357
0.0007066
0.000705664
0.000703168
0.000698804
0.00069226
0.000683152
0.000671094
0.000655382
0.000634853
0.000607768
0.000573302
0.00113842
0.00111234
0.00108175
0.00104524
0.00100109
0.00094743
0.000883666
0.00081521
0.000756118
0.00071948
0.00070492
0.000703282
0.000706887
0.000711723
0.000716327
0.000720005
0.000722546
0.000724116
0.000724712
0.000724207
0.0007224
0.000719116
0.000714154
0.000707247
0.000697985
0.000685845
0.00066997
0.000648761
0.000620073
0.000582908
0.00118246
0.0011589
0.00113135
0.00109898
0.00106075
0.00101526
0.000961391
0.000901358
0.000844139
0.000802594
0.000781668
0.000776528
0.000780001
0.000786944
0.000794154
0.000799562
0.000802395
0.000802964
0.000801392
0.000797929
0.00079274
0.000786065
0.000777961
0.00076825
0.00075636
0.000741684
0.00072335
0.000699329
0.000666443
0.000622759
0.00126878
0.00125093
0.00123157
0.00121057
0.00118735
0.00116072
0.00112925
0.00109334
0.00105642
0.00102778
0.00101281
0.00101019
0.0010152
0.00102412
0.00103242
0.00103757
0.00103853
0.00103617
0.00103084
0.00102295
0.00101303
0.00100165
0.000989171
0.000975407
0.000958773
0.000939037
0.000916862
0.000889339
0.000853145
0.000806242
0.00155333
0.00155009
0.00155079
0.0015512
0.00155031
0.00154725
0.00154108
0.00153226
0.00151849
0.0015064
0.0014986
0.00149502
0.00149446
0.00149802
0.00150136
0.00150338
0.00150257
0.00150154
0.0015
0.00149859
0.00149709
0.00149593
0.00149493
0.00149368
0.00148685
0.00147597
0.00146658
0.00145207
0.00143229
0.00140585
0.000205116
0.000212343
0.000209581
0.000203666
0.000195966
0.000187323
0.000178299
0.000169291
0.000160533
0.000152211
0.000144395
0.000137182
0.000130578
0.000124722
0.000119646
0.000115539
0.00011251
0.000110893
0.000110808
0.000111774
0.000112989
0.000113175
0.000111505
0.00010739
0.000100518
9.09623e-05
0.00038034
0.000355305
0.000362361
9.02811e-05
0.000792979
0.000893832
0.000864504
0.000804124
0.000737157
0.000673951
0.000617598
0.000568147
0.000524899
0.000487408
0.000454557
0.000426026
0.000400431
0.000378291
0.000358779
0.000342285
0.000327526
0.000317026
0.000310986
0.000310484
0.000314526
0.000320385
0.000322339
0.000315288
0.000299011
0.000272835
0.000275491
0.000322838
0.000389833
0.000361608
0.00125732
0.00145164
0.00146198
0.00140027
0.00131305
0.00122079
0.00113328
0.00105325
0.000981232
0.000917538
0.000860844
0.000811037
0.000765965
0.000726804
0.000692571
0.000663148
0.000635597
0.000613593
0.000595864
0.000584834
0.000581516
0.0005831
0.000580524
0.000566516
0.000536121
0.000489013
0.00043825
0.000405768
0.000440588
0.000482571
0.00155686
0.00181696
0.00186878
0.00183106
0.00175254
0.00165765
0.00156043
0.00146713
0.00138018
0.00130116
0.00122943
0.00116559
0.00110774
0.00105731
0.00101394
0.000976874
0.000941697
0.000911506
0.000883115
0.000860357
0.000845588
0.000837885
0.00082728
0.00080325
0.000759985
0.000695909
0.000616903
0.000533086
0.000501903
0.000516522
0.00170711
0.00198421
0.00209686
0.00211061
0.00205929
0.00197842
0.00188569
0.00179221
0.00170128
0.00161639
0.00153776
0.00146703
0.00140267
0.00134684
0.00129995
0.00126035
0.00122214
0.00118701
0.00115044
0.00111712
0.00109099
0.00107289
0.00105284
0.00101938
0.000966183
0.000890385
0.000795017
0.000681945
0.000598673
0.000567145
0.00179375
0.00207138
0.00222333
0.00227434
0.00225829
0.00219992
0.00211963
0.00203598
0.00194876
0.0018657
0.00178681
0.00171508
0.0016498
0.00159369
0.00154776
0.00150965
0.00147183
0.00143411
0.00139153
0.00134949
0.00131325
0.00128516
0.00125582
0.00121464
0.00115427
0.00107089
0.000966416
0.000838516
0.000721723
0.000649889
0.00182763
0.00209621
0.0022667
0.00235042
0.00236857
0.00234126
0.00228742
0.00221136
0.00213037
0.0020562
0.00198226
0.00191448
0.00185286
0.00180085
0.00175915
0.0017257
0.00169072
0.00165216
0.0016054
0.00155646
0.00151173
0.00147422
0.00143709
0.00138994
0.00132487
0.00123735
0.00112795
0.000993285
0.000857216
0.000752954
0.00181212
0.00205415
0.00223956
0.00235452
0.00240779
0.0024111
0.00238252
0.00232845
0.00226748
0.00219954
0.00212993
0.00207099
0.00201617
0.00197162
0.00193694
0.00191053
0.00188006
0.00184219
0.00179276
0.0017387
0.00168708
0.00164259
0.00159887
0.00154668
0.00147879
0.00138972
0.00127898
0.00114191
0.00099581
0.000865689
0.00171927
0.00194785
0.00215108
0.0022979
0.00238752
0.00242263
0.00242181
0.00239496
0.00235246
0.0022998
0.00224563
0.00219145
0.00214441
0.00210941
0.00208408
0.00206629
0.00204173
0.00200564
0.00195488
0.00189752
0.00184222
0.0017924
0.0017438
0.00168775
0.00161759
0.00152868
0.00141938
0.00128418
0.00113236
0.000980607
0.00157219
0.00178583
0.00201036
0.00218927
0.00231723
0.00238634
0.00241707
0.00241776
0.00239829
0.00236354
0.00232288
0.00227968
0.0022429
0.0022176
0.00220338
0.00219513
0.00217749
0.00214404
0.00209319
0.00203427
0.00197585
0.00192236
0.00187044
0.00181314
0.00174282
0.00165581
0.00154888
0.00141777
0.00126275
0.00109228
0.00142881
0.00159724
0.00181964
0.00203426
0.00220607
0.00231015
0.00237501
0.00240471
0.00240932
0.0023947
0.0023695
0.00234011
0.00231427
0.00230116
0.00229753
0.0022994
0.00228881
0.00225859
0.00220924
0.00215047
0.00209063
0.00203407
0.00198074
0.00192369
0.00185665
0.0017704
0.00166517
0.00153973
0.00138199
0.00119652
0.00131197
0.00141474
0.00161034
0.00183851
0.00204478
0.00219807
0.00230098
0.0023611
0.00239045
0.0023969
0.0023891
0.00237489
0.00236213
0.00236075
0.00236849
0.00238075
0.00237722
0.00235118
0.00230457
0.00224744
0.00218772
0.00213085
0.00207744
0.00202121
0.00195505
0.00187135
0.00176888
0.00164698
0.00148793
0.00129508
0.00123092
0.00126278
0.00141053
0.00162747
0.00185262
0.00204543
0.00219186
0.00229111
0.00234565
0.00237401
0.00238481
0.002387
0.00238842
0.00239962
0.00241861
0.00244065
0.00244475
0.00242394
0.00238043
0.00232606
0.00226903
0.00221309
0.00215837
0.00210297
0.00203844
0.00195859
0.00186221
0.00174014
0.00157956
0.00138107
0.00121595
0.00116197
0.00124557
0.00142572
0.00164934
0.0018678
0.00204998
0.00218649
0.00227756
0.00232941
0.0023598
0.002379
0.00239545
0.00241985
0.00244916
0.00248068
0.00249207
0.00247808
0.00243846
0.00238737
0.00233014
0.00227305
0.00221914
0.00216781
0.00210708
0.00203184
0.00194319
0.00181961
0.00165682
0.00145363
0.00125577
0.00114028
0.00114464
0.00126327
0.00145791
0.00168188
0.00188794
0.00205503
0.00217949
0.00226436
0.00231709
0.00235345
0.00238535
0.00242245
0.00246193
0.00250251
0.00252157
0.00251487
0.00248082
0.00243366
0.00238039
0.00232403
0.00226916
0.0022163
0.00216198
0.00209529
0.0020087
0.00188466
0.00171966
0.00151244
0.00135619
0.00119014
0.00111673
0.0011639
0.00130447
0.00150686
0.00171957
0.00190752
0.00205967
0.00217459
0.00225617
0.0023126
0.00235985
0.00240921
0.00245867
0.00250783
0.00253475
0.00253585
0.00250872
0.0024665
0.00241764
0.00236573
0.00231179
0.00225894
0.00220732
0.00214934
0.00206197
0.00193638
0.00176872
0.00155785
0.00152631
0.00132375
0.00118415
0.00113932
0.00121373
0.00136416
0.00156089
0.00175602
0.00192723
0.00206697
0.00217484
0.00225648
0.00232079
0.00238192
0.00244108
0.0024984
0.00253322
0.00254257
0.00252349
0.00248713
0.00244374
0.0023966
0.00234837
0.00229767
0.00224892
0.00219135
0.00210329
0.00197574
0.00180503
0.00159058
0.00176336
0.00153754
0.0013471
0.00122158
0.00119303
0.00127875
0.00143122
0.00161446
0.00179251
0.00194927
0.0020788
0.0021831
0.00226867
0.00234227
0.00241107
0.00247612
0.00251878
0.00253674
0.00252668
0.00249718
0.00246034
0.0024194
0.00237785
0.00233398
0.00228684
0.00222509
0.00213436
0.00200422
0.00182995
0.00161175
0.00205802
0.00181896
0.00159409
0.00140294
0.00128301
0.00126453
0.00135278
0.00149923
0.00166745
0.0018304
0.00197468
0.0020973
0.00220165
0.00229242
0.00237081
0.00244311
0.00249352
0.00252038
0.00252009
0.00249915
0.00246998
0.00243743
0.00240423
0.00236714
0.00231817
0.00225173
0.00215724
0.00202376
0.00184529
0.00162303
0.00239557
0.00214988
0.00190288
0.00166517
0.0014677
0.00135182
0.00133985
0.00142808
0.00156585
0.00172047
0.00186999
0.00200465
0.00212366
0.00222903
0.00232107
0.00240149
0.00245976
0.00249566
0.00250613
0.00249619
0.0024762
0.00245224
0.0024268
0.00239391
0.00234318
0.00227259
0.0021744
0.00203675
0.00185331
0.00162651
0.00275605
0.00250808
0.00224733
0.0019788
0.00172458
0.00152421
0.00141669
0.00141368
0.00150103
0.00163051
0.00177279
0.00191102
0.00203843
0.00215437
0.002257
0.0023474
0.00241553
0.00246101
0.00248242
0.00248427
0.00247405
0.00245915
0.0024405
0.00240941
0.00235964
0.00228969
0.00218839
0.00204567
0.00185644
0.00162448
0.00311293
0.00286595
0.00259802
0.00231099
0.0020198
0.00175673
0.00156442
0.00147102
0.00148161
0.0015688
0.00169015
0.00182091
0.00194822
0.00206766
0.00217423
0.00226908
0.00234426
0.0023986
0.00243169
0.00244655
0.00244855
0.00244377
0.00243301
0.00241006
0.00236726
0.00229787
0.00219421
0.00204938
0.00185536
0.00161818
0.00343225
0.00318969
0.00292139
0.002627
0.00231617
0.00201341
0.00175712
0.00158303
0.00151473
0.00153861
0.00162202
0.00173252
0.00184742
0.00195809
0.0020571
0.00214664
0.00222159
0.00228046
0.002323
0.00235184
0.00236968
0.00238132
0.00238637
0.00237917
0.00235138
0.00229146
0.00218884
0.00204023
0.00184653
0.00160721
0.00367127
0.00343896
0.00317906
0.00288911
0.00257475
0.00225334
0.00195619
0.00171945
0.00157724
0.00153239
0.00155915
0.00162837
0.00171249
0.00179647
0.00187216
0.00194315
0.00200606
0.00206341
0.0021133
0.00215664
0.00219459
0.00222904
0.00225757
0.00227523
0.00227336
0.0022396
0.00215702
0.00201846
0.00182332
0.00158739
0.00378184
0.0035693
0.00332934
0.00305715
0.00275472
0.00243336
0.00211679
0.00183788
0.00163371
0.00151863
0.00147899
0.00148719
0.00152195
0.00156452
0.0016095
0.00165615
0.0017027
0.0017516
0.00180176
0.00185385
0.00190694
0.00196067
0.00201316
0.00205949
0.00209112
0.00209539
0.00205485
0.00194988
0.00178017
0.00155446
0.00372668
0.00354807
0.00334218
0.00310234
0.00282752
0.00252479
0.00221254
0.00191984
0.00168164
0.00151711
0.00142286
0.00137925
0.00137483
0.00139206
0.00142333
0.00145954
0.00149451
0.00152992
0.00156835
0.00160817
0.00165059
0.00169681
0.00174655
0.001797
0.00184171
0.00186992
0.00186533
0.00180807
0.00167566
0.00148958
0.0035237
0.00339626
0.00324203
0.0030532
0.00282735
0.00257104
0.00230103
0.00204377
0.00182695
0.00166721
0.0015633
0.00151031
0.00150065
0.00151864
0.00155356
0.00158988
0.00161808
0.00164202
0.00166237
0.00167901
0.00169395
0.00170948
0.00172667
0.0017448
0.00176042
0.00176646
0.00175012
0.00169391
0.00157632
0.0013943
0.00333077
0.00326514
0.00317328
0.00304887
0.00289025
0.00270627
0.00251234
0.00232668
0.00216691
0.00204281
0.00195898
0.00191861
0.00191305
0.00193151
0.00196328
0.00199509
0.00201782
0.00203697
0.00204969
0.00205763
0.00206174
0.0020635
0.00206305
0.00205886
0.00204761
0.00202403
0.00197712
0.00188955
0.00174039
0.00152002
0.00323882
0.00321553
0.00318486
0.00312955
0.0030463
0.00294056
0.00281951
0.00269826
0.00258727
0.00249452
0.00242881
0.00239171
0.00237828
0.00238323
0.00239767
0.00241591
0.0024308
0.00244667
0.00246055
0.00247432
0.00248813
0.00250183
0.00251421
0.0025224
0.00252258
0.00251104
0.00247784
0.00240797
0.00228736
0.0021099
0.00323211
0.00323127
0.00322963
0.00320817
0.00316482
0.00310941
0.00304154
0.00296837
0.00289556
0.00283427
0.00278331
0.00274633
0.00272302
0.0027131
0.00271079
0.00271725
0.00272648
0.00274065
0.00275885
0.00278219
0.00280983
0.00284036
0.00287145
0.00290063
0.00292493
0.00294509
0.00295164
0.0029366
0.00290358
0.00284643
0.000236165
0.000243444
0.000238528
0.000231321
0.000222472
0.000212658
0.000202456
0.000192293
0.000182421
0.000173043
0.000164223
0.000156076
0.000148581
0.00014192
0.000136139
0.00013152
0.000128283
0.00012733
0.000129203
0.000132783
0.000135818
0.000136666
0.000134363
0.000128295
0.000118035
0.00010309
8.19131e-05
0.000363961
0.000376336
9.31698e-05
0.00102004
0.00116898
0.00117252
0.00110787
0.00102387
0.000941061
0.000865754
0.000799527
0.000741243
0.000690181
0.000644334
0.000603353
0.000564681
0.000529792
0.000496848
0.000466979
0.000438795
0.000422171
0.000419126
0.000430157
0.000449265
0.000468211
0.000473945
0.000457549
0.000418794
0.000363683
0.000300043
0.000337665
0.000362224
0.000377073
0.00163477
0.00191922
0.00198787
0.0019415
0.00184547
0.00173365
0.00162168
0.00151679
0.0014205
0.00133338
0.00125331
0.00118036
0.00111084
0.00104749
0.000988496
0.000933667
0.000879845
0.000842078
0.000820678
0.00082017
0.000836074
0.000857563
0.000858578
0.000827722
0.00076218
0.000662885
0.00054478
0.00046193
0.000453141
0.00054458
0.00208719
0.00242736
0.00254223
0.00253236
0.00245255
0.00234296
0.00222256
0.00210285
0.00198818
0.00188125
0.00178093
0.00168827
0.00159998
0.00151915
0.00144505
0.0013759
0.00130646
0.00125113
0.00121076
0.00119341
0.00119636
0.0012101
0.00120524
0.00116388
0.00107765
0.000948744
0.000791167
0.000634566
0.000555299
0.000601579
0.00238815
0.0027332
0.00289561
0.0029297
0.00287799
0.00278562
0.00267245
0.00255347
0.00243398
0.00231968
0.00221048
0.00210872
0.00201134
0.00192269
0.00184307
0.00176842
0.00168985
0.00161977
0.00156179
0.0015262
0.00151552
0.00151899
0.00150724
0.00145844
0.00136149
0.00121614
0.00103462
0.000836157
0.000692833
0.000671562
0.00257184
0.00289831
0.00309191
0.00316916
0.00316053
0.00309429
0.00299691
0.0028898
0.00277409
0.00266221
0.0025528
0.00245001
0.00235184
0.00226346
0.00218536
0.00211096
0.00202733
0.00194453
0.00187039
0.00181842
0.00179404
0.00178685
0.00176952
0.0017162
0.00161562
0.00146403
0.00127097
0.00104926
0.000861121
0.000782245
0.00270735
0.00300771
0.00320301
0.00330503
0.00332965
0.00329899
0.00323023
0.00313195
0.0030233
0.0029231
0.0028201
0.00272279
0.0026306
0.00254938
0.00247772
0.00240806
0.0023216
0.00222766
0.00213899
0.00207291
0.00203588
0.00201821
0.00199557
0.00194306
0.0018429
0.00169233
0.00149713
0.00126584
0.00104873
0.000923564
0.00279532
0.00303779
0.00322695
0.00334958
0.00340656
0.00340927
0.00337114
0.00329944
0.00321837
0.00312227
0.00302247
0.00293672
0.00285513
0.00278638
0.00272585
0.00266384
0.002576
0.00247263
0.00237155
0.00229357
0.00224503
0.00221782
0.00219026
0.0021397
0.0020461
0.00190175
0.00171333
0.00148182
0.00124683
0.00108243
0.0027788
0.00298578
0.00317187
0.00331588
0.00340568
0.00344294
0.00343775
0.00339684
0.0033367
0.00326111
0.00318275
0.00310303
0.00303254
0.00298031
0.00293448
0.00288169
0.00279381
0.00268288
0.00257224
0.00248415
0.00242619
0.00239001
0.0023584
0.00231028
0.00222751
0.00209376
0.00191167
0.00168678
0.00144581
0.00124572
0.00268037
0.00285962
0.00304695
0.00321544
0.00333896
0.0034126
0.0034417
0.00343413
0.00340025
0.00334812
0.00328841
0.00322603
0.00317389
0.00313636
0.00310744
0.00306477
0.0029777
0.00286211
0.00274428
0.00264905
0.00258336
0.00253932
0.00250479
0.00246017
0.00238578
0.00226297
0.00209195
0.00187848
0.00163699
0.00140961
0.00255609
0.00269527
0.00287284
0.00305812
0.00321585
0.00332794
0.00339406
0.00341974
0.00341614
0.00339023
0.00335277
0.00331178
0.00327781
0.00326065
0.00324784
0.0032159
0.00313041
0.00301173
0.00289111
0.00279195
0.00272025
0.00267055
0.00263434
0.0025907
0.00252119
0.00241109
0.00225413
0.00205405
0.00181728
0.00157258
0.00243189
0.002507
0.00266248
0.00285712
0.00304513
0.00319669
0.00330238
0.003363
0.00339056
0.00339341
0.0033809
0.00336342
0.00335121
0.00335422
0.00335853
0.00333751
0.00325502
0.00313758
0.0030158
0.00291591
0.00284009
0.00278858
0.00274736
0.00270297
0.00263769
0.00253885
0.00239978
0.00221072
0.00198005
0.00172809
0.0023237
0.00231425
0.00243398
0.00262572
0.00283648
0.00302461
0.00317022
0.00326987
0.00333086
0.00336316
0.00337729
0.00338519
0.00339687
0.00342022
0.00344204
0.00343128
0.00335496
0.00324077
0.00312157
0.00302383
0.00294632
0.00288785
0.00284266
0.00279926
0.00273851
0.00265246
0.00252717
0.00234827
0.00212359
0.00186717
0.00224105
0.0021485
0.00221501
0.00238447
0.00260373
0.00282087
0.00300415
0.00314277
0.00324018
0.0033051
0.00334699
0.00338082
0.00341655
0.00346062
0.00350036
0.00349981
0.00343211
0.00332442
0.00320908
0.00311061
0.00303095
0.00296969
0.00292196
0.00288167
0.00282621
0.00275383
0.00263872
0.00246744
0.00224755
0.00198814
0.00224165
0.00205607
0.00204347
0.00216339
0.00236818
0.0025992
0.00281285
0.00298788
0.00312169
0.00322043
0.00329344
0.00335347
0.00341331
0.00347796
0.00353499
0.0035456
0.00348972
0.00339158
0.00328358
0.00319019
0.00311037
0.00304651
0.00299773
0.00295583
0.00290848
0.00284163
0.00273297
0.00256823
0.00235184
0.00209003
0.00231496
0.00207742
0.00196194
0.00200186
0.00216073
0.00238064
0.00260949
0.00281364
0.00298112
0.00311329
0.00321779
0.00330601
0.00338954
0.00347424
0.00354766
0.00357088
0.00352969
0.00344438
0.00334543
0.00325836
0.00318295
0.00311976
0.00307182
0.00302887
0.00298488
0.00291802
0.00281195
0.00265229
0.00243722
0.00217276
0.00247438
0.00219534
0.00200257
0.00194243
0.00202182
0.00219501
0.00241396
0.00263251
0.00282624
0.00298867
0.00312351
0.00323972
0.00334709
0.00345104
0.00353998
0.00357723
0.00355293
0.00348378
0.00339584
0.00331656
0.00324752
0.00319026
0.00314403
0.00309899
0.00305185
0.00298328
0.0028768
0.00271917
0.00250398
0.00223654
0.00273954
0.00243323
0.0021776
0.00201669
0.00197922
0.00207805
0.00225293
0.00246198
0.00266787
0.00285311
0.00301455
0.0031567
0.00328634
0.00340935
0.00351242
0.0035647
0.00355875
0.0035091
0.00343426
0.00336513
0.00330467
0.00325535
0.0032099
0.00316092
0.00310923
0.00303738
0.00292836
0.00276942
0.00255324
0.00228221
0.00309319
0.00277128
0.00247178
0.00222735
0.00207892
0.00205429
0.00215722
0.00232374
0.00251977
0.00271482
0.00289532
0.00305862
0.00320746
0.00334674
0.00346223
0.00352975
0.00354291
0.00351533
0.00345695
0.0034002
0.00335
0.00330688
0.00326073
0.00320955
0.00315534
0.0030802
0.00296748
0.00280502
0.00258594
0.00231095
0.00349928
0.00317061
0.00284366
0.00253987
0.00229634
0.00215512
0.0021393
0.00223822
0.00239659
0.00258263
0.00276975
0.00294504
0.00310793
0.00325664
0.00338013
0.00346053
0.00349309
0.00348733
0.00345041
0.00340732
0.0033673
0.00332839
0.00328912
0.00324614
0.00319213
0.00311373
0.00299591
0.00282807
0.00260393
0.00232463
0.00391401
0.00358411
0.00324201
0.00290094
0.00258941
0.0023485
0.00221835
0.00221197
0.00230702
0.00246366
0.00263857
0.0028115
0.00297647
0.00312783
0.00324686
0.00333352
0.00338308
0.00339901
0.00338501
0.00336192
0.00333707
0.00331324
0.00328743
0.00325215
0.00320176
0.00312759
0.00301054
0.00284023
0.00261073
0.00232598
0.00428924
0.0039627
0.00361556
0.0032555
0.00290279
0.00259092
0.00236261
0.00225024
0.00225414
0.00234435
0.00248946
0.00264291
0.00279103
0.00292196
0.00303176
0.00311708
0.00318084
0.0032134
0.00322454
0.00322629
0.00322508
0.00322338
0.0032189
0.00320385
0.003165
0.00308999
0.00297847
0.00282057
0.00259582
0.0023119
0.00457575
0.00425862
0.00391671
0.00355363
0.0031829
0.00282924
0.0025296
0.0023224
0.00222814
0.00223209
0.00230959
0.00241549
0.00252814
0.00263163
0.00271645
0.0027947
0.00286176
0.00290946
0.00294384
0.00297272
0.00299986
0.0030263
0.00305006
0.00306357
0.00305385
0.00300125
0.0028979
0.00273998
0.0025365
0.00227145
0.00472792
0.00442983
0.00410512
0.00375432
0.00338552
0.00301569
0.00267352
0.00239471
0.0022093
0.00212106
0.00210923
0.00214695
0.00221002
0.00228151
0.00235261
0.00242375
0.00248801
0.00254333
0.00259131
0.0026395
0.00268616
0.0027338
0.00278081
0.00282056
0.00284124
0.00282565
0.00275373
0.00262243
0.00243002
0.00218392
0.0047168
0.00445128
0.00415847
0.00383618
0.0034884
0.0031266
0.00277281
0.00245824
0.00221502
0.00205717
0.00197265
0.00195334
0.00198071
0.00203442
0.00210737
0.00217716
0.00223683
0.00228757
0.00233455
0.00237877
0.00242075
0.00246366
0.00250777
0.00254886
0.00257781
0.00258063
0.00253931
0.00243677
0.00227312
0.00206871
0.0045548
0.0043397
0.00409763
0.00382369
0.00351913
0.00319351
0.00286572
0.00256434
0.0023197
0.00214361
0.00203374
0.00199635
0.00201312
0.00206499
0.00214147
0.0022094
0.00226051
0.00229976
0.0023335
0.00235869
0.00237827
0.0023952
0.00241101
0.00242392
0.00242794
0.00241289
0.00236328
0.00226416
0.00210223
0.00190346
0.00432941