/*--------------------------------*- C++ -*----------------------------------*\
| =========                 |                                                 |
| \\      /  F ield         | OpenFOAM: The Open Source CFD Toolbox           |
|  \\    /   O peration     | Version:  5.0                                   |
|   \\  /    A nd           | Web:      www.OpenFOAM.org                      |
|    \\/     M anipulation  |                                                 |
\*---------------------------------------------------------------------------*/
FoamFile
{
    version     2.0;
    format      ascii;
    class       volScalarField;
    location    "1750/air";
    object      epsilon;
}
// * * * * * * * * * * * * * * * * * * * * * * * * * * * * * * * * * * * * * //

dimensions      [0 2 -3 0 0 0 0];

internalField   nonuniform List<scalar> 
243000
(
3.51457
4.30777
4.70209
4.93517
5.01983
4.98633
4.85381
4.64412
4.37786
4.07712
3.75805
3.43367
3.10814
2.79213
2.49258
2.22119
1.98566
0.426308
1.71468
1.69344
1.49864
1.37167
1.22649
1.13532
0.986849
0.869974
0.744861
0.145471
0.114617
0.494232
1.83475
2.17442
2.25101
2.23541
2.16212
2.05201
1.91996
1.77737
1.63134
1.48765
1.34912
1.21803
1.09463
0.981754
0.880602
0.793098
0.719872
0.664858
0.628929
0.609377
0.590903
0.568988
0.534841
0.483157
0.425195
0.355899
0.287461
0.218763
0.163392
0.190508
2.29957
2.69543
2.81283
2.8049
2.72091
2.58904
2.42863
2.25359
2.07309
1.89485
1.72248
1.55922
1.40599
1.26666
1.14292
1.03716
0.94986
0.885507
0.842792
0.817214
0.796954
0.771178
0.729479
0.666972
0.587175
0.495156
0.398578
0.299748
0.221977
0.204706
2.52863
2.96557
3.12715
3.15124
3.08454
2.95913
2.79616
2.61139
2.41589
2.21926
2.02677
1.84327
1.67053
1.5137
1.37523
1.25822
1.16307
1.09434
1.04857
1.01924
0.994533
0.962695
0.912621
0.83882
0.743583
0.632643
0.513832
0.390239
0.291542
0.236805
2.56899
3.00989
3.23915
3.31495
3.28496
3.1856
3.03854
2.86115
2.66609
2.46477
2.26418
2.07092
1.88797
1.72182
1.57566
1.45354
1.35579
1.28653
1.24
1.20784
1.17795
1.13902
1.08036
0.996443
0.888998
0.763419
0.62777
0.484342
0.367012
0.29049
2.4805
2.91667
3.19838
3.33361
3.35387
3.29263
3.17435
3.01658
2.83371
2.63869
2.43982
2.24555
2.0602
1.89179
1.74373
1.62173
1.5256
1.45874
1.41303
1.37869
1.34361
1.29737
1.2304
1.13766
1.02061
0.88407
0.735912
0.578276
0.444279
0.349605
2.29325
2.73416
3.05828
3.24682
3.32043
3.30628
3.22273
3.09125
2.92959
2.74942
2.56015
2.37197
2.19058
2.02556
1.88046
1.76272
1.67148
1.60909
1.56537
1.52948
1.48961
1.43643
1.36184
1.26156
1.13708
0.992607
0.835413
0.667662
0.519996
0.406765
2.03813
2.48827
2.84543
3.08254
3.2087
3.24265
3.20155
3.10427
2.96609
2.80545
2.63198
2.45555
2.28317
2.12574
1.98758
1.87726
1.79334
1.73681
1.69591
1.65917
1.61521
1.55591
1.47466
1.3682
1.23808
1.08813
0.924729
0.750352
0.592308
0.463033
1.75104
2.20649
2.58789
2.86554
3.04004
3.12044
3.12276
3.0627
2.95697
2.81987
2.66261
2.50184
2.34219
2.19564
2.06733
1.96666
1.89171
1.84188
1.80441
1.76751
1.7204
1.6561
1.56942
1.45815
1.32399
1.17053
1.00364
0.823777
0.658649
0.517801
1.49466
1.93035
2.31556
2.6194
2.83359
2.95679
3.00099
2.97953
2.90659
2.79666
2.66323
2.51775
2.37218
2.23872
2.1222
2.03262
1.96752
1.9248
1.89116
1.85481
1.8056
1.73761
1.64691
1.53228
1.3956
1.2407
1.07059
0.887056
0.718475
0.569326
1.27773
1.67332
2.05669
2.37408
2.60888
2.76706
2.84909
2.86481
2.82522
2.74371
2.63333
2.50812
2.37866
2.25845
2.15482
2.07701
2.02205
1.98647
1.9569
1.92177
1.87158
1.8013
1.70812
1.59163
1.45427
1.29808
1.12602
0.941176
0.77173
0.616832
1.11593
1.43866
1.80802
2.1359
2.39124
2.57048
2.67963
2.72772
2.7203
2.6672
2.58108
2.47589
2.36363
2.2589
2.16793
2.10184
2.05676
2.02811
2.0027
1.9694
1.91934
1.84827
1.75415
1.6376
1.50005
1.34346
1.17056
0.988845
0.819318
0.660368
1.02934
1.23872
1.57144
1.90202
2.17631
2.378
2.50914
2.57842
2.5988
2.57287
2.51081
2.42627
2.33137
2.24163
2.16383
2.10908
2.07334
2.05123
2.02988
1.99892
1.95004
1.8797
1.78651
1.67052
1.53365
1.37753
1.20482
1.02914
0.861112
0.699609
1.03927
1.0982
1.35734
1.67388
1.96197
2.18627
2.34075
2.43138
2.46972
2.46659
2.42706
2.36278
2.28513
2.21004
2.1449
2.10075
2.07329
2.05735
2.03996
2.01183
1.9653
1.89667
1.80491
1.69071
1.5557
1.40102
1.23049
1.06217
0.89701
0.734312
1.16182
1.05233
1.18965
1.46061
1.74962
1.99358
2.17205
2.28527
2.34292
2.35595
2.33456
2.28882
2.22782
2.16669
2.11342
2.0789
2.05892
2.0483
2.03467
2.00921
1.96473
1.89855
1.80958
1.69843
1.56668
1.41472
1.25163
1.08944
0.927452
0.764449
1.39317
1.14098
1.10788
1.28377
1.54705
1.80105
2.00173
2.13835
2.21661
2.24682
2.23965
2.20819
2.1621
2.114
2.07157
2.0456
2.03209
2.02606
2.01596
1.99364
1.95257
1.88916
1.80327
1.6954
1.56701
1.41933
1.26656
1.11101
0.952606
0.790018
1.71529
1.377
1.16399
1.18294
1.37371
1.61533
1.83086
1.98985
2.08959
2.138
2.14596
2.12581
2.091
2.05428
2.02144
2.0029
1.99478
1.99265
1.98586
1.96679
1.92938
1.87032
1.78815
1.68421
1.55983
1.42058
1.27649
1.12734
0.9727
0.811052
2.11667
1.73576
1.38723
1.21019
1.26595
1.45303
1.66509
1.84083
1.96139
2.02873
2.05245
2.04472
2.0186
1.99002
1.96516
1.95277
1.949
1.95013
1.94638
1.93062
1.89711
1.84268
1.7655
1.66619
1.54715
1.41796
1.28195
1.13887
0.988
0.82764
2.54346
2.15575
1.74459
1.40209
1.2659
1.34308
1.51754
1.69586
1.83302
1.91878
1.95862
1.96404
1.94759
1.92437
1.90502
1.8973
1.89686
1.90061
1.8996
1.88713
1.85767
1.80807
1.73664
1.64284
1.53293
1.41244
1.28352
1.1461
0.998854
0.839992
3.00602
2.61598
2.18316
1.74147
1.41815
1.3234
1.41113
1.56498
1.70804
1.80902
1.8645
1.88322
1.87724
1.86054
1.84429
1.83884
1.84056
1.84622
1.8476
1.83833
1.81298
1.76836
1.70298
1.61757
1.51703
1.40457
1.28208
1.14971
1.00578
0.84842
3.50078
3.10676
2.66489
2.17725
1.71738
1.43125
1.37534
1.46508
1.59377
1.70215
1.77083
1.80235
1.8071
1.79785
1.78578
1.78079
1.78265
1.78929
1.79256
1.78625
1.76498
1.72555
1.66813
1.59199
1.50007
1.39509
1.27853
1.15046
1.00941
0.853451
4.0215
3.62064
3.17002
2.66057
2.12223
1.67187
1.43942
1.41748
1.50206
1.6034
1.67968
1.7222
1.73725
1.73605
1.72906
1.72579
1.72786
1.73407
1.73831
1.73455
1.71778
1.68466
1.63466
1.56694
1.48304
1.38501
1.27388
1.14953
1.01064
0.855638
4.57064
4.15536
3.69032
3.16377
2.58292
2.01873
1.6133
1.44361
1.44782
1.52099
1.59494
1.64456
1.66864
1.67541
1.67426
1.67377
1.67684
1.68315
1.68826
1.68672
1.67391
1.64649
1.60336
1.54341
1.46717
1.37576
1.26963
1.14833
1.01065
0.855795
5.12363
4.69277
4.21219
3.67012
3.06364
2.4299
1.88439
1.55473
1.44644
1.46595
1.52316
1.57318
1.60365
1.61774
1.62274
1.62601
1.63091
1.63787
1.64389
1.64432
1.635
1.61267
1.57586
1.52318
1.45417
1.36914
1.26758
1.14873
1.01122
0.855462
5.66718
5.22295
4.72852
4.17213
3.54815
2.87414
2.23041
1.75288
1.51238
1.45234
1.47549
1.5163
1.54889
1.56896
1.58035
1.5884
1.59607
1.6043
1.61125
1.61326
1.60669
1.58861
1.55707
1.51042
1.44751
1.36802
1.27095
1.15422
1.01571
0.857253
6.21291
5.75741
5.25134
4.68376
4.04785
3.3507
2.64392
2.04571
1.66793
1.50704
1.47592
1.49612
1.52594
1.55106
1.57007
1.58479
1.59663
1.60671
1.61408
1.61629
1.61045
1.59398
1.56503
1.522
1.46323
1.38762
1.29294
1.17576
1.03227
0.867033
6.81422
6.355
5.8434
5.26988
4.62837
3.92137
3.17928
2.49314
1.98622
1.7087
1.6053
1.59307
1.61707
1.65015
1.68224
1.70831
1.72663
1.73819
1.74288
1.73974
1.72731
1.70442
1.66995
1.62253
1.56018
1.48076
1.38091
1.25456
1.09621
0.911404
7.63731
7.18767
6.68509
6.12553
5.50638
4.82567
4.09495
3.37132
2.76536
2.37342
2.19003
2.14546
2.17334
2.23127
2.29281
2.33983
2.36481
2.37
2.3564
2.32642
2.28185
2.22528
2.15777
2.0786
1.98426
1.8717
1.73708
1.57066
1.36056
1.11134
9.42747
9.03207
8.61662
8.1805
7.71599
7.20547
6.63145
6.01379
5.41903
4.98437
4.76511
4.72481
4.79321
4.91924
5.03889
5.11398
5.12793
5.09291
5.01481
4.90086
4.76012
4.60203
4.43281
4.25103
4.03809
3.79472
3.53313
3.22589
2.84991
2.40802
17.2146
17.1057
17.1278
17.1393
17.1071
17.0021
16.7948
16.5018
16.0529
15.6641
15.4149
15.2996
15.2785
15.3851
15.4866
15.5479
15.5222
15.4899
15.4421
15.3986
15.3527
15.3174
15.2871
15.2491
15.0421
14.715
14.4355
14.0141
13.4523
12.7298
6.2585
8.08373
9.01633
9.55416
9.77085
9.72976
9.48709
9.0957
8.59501
8.02172
7.40031
6.76151
6.12072
5.51034
4.94562
4.45377
4.04595
3.75039
3.56515
3.44336
3.28729
3.01734
2.60451
2.0761
1.50958
0.980634
0.173852
0.146771
0.128739
0.537697
3.93741
4.58394
5.00611
5.24875
5.33665
5.28919
5.13134
4.89339
4.60055
4.27378
3.92991
3.58383
3.24793
2.93494
2.65678
2.42512
2.24828
2.13993
2.10463
2.1083
2.08426
1.97848
1.77371
1.48776
1.15533
0.822644
0.485878
0.293973
0.303043
0.246718
3.46912
3.92062
4.20852
4.36978
4.42679
4.39081
4.27332
4.09206
3.86413
3.60607
3.33188
3.0544
2.78432
2.53383
2.31353
2.13623
2.00863
1.94115
1.93569
1.96249
1.96354
1.89311
1.73435
1.49595
1.21162
0.913194
0.625818
0.394308
0.331914
0.289812
3.17803
3.5467
3.78852
3.92817
3.98629
3.97231
3.8904
3.75132
3.56776
3.35346
3.12074
2.88176
2.64622
2.42788
2.23728
2.08772
1.98505
1.93784
1.94397
1.97457
1.98052
1.92099
1.78007
1.56593
1.30422
1.02118
0.742252
0.48996
0.353345
0.281704
2.90361
3.20342
3.42948
3.57377
3.6494
3.664
3.6176
3.51661
3.37134
3.19371
2.99494
2.78665
2.57894
2.38609
2.21883
2.09131
2.00863
1.97707
1.99008
2.01935
2.02249
1.96481
1.83326
1.63442
1.38881
1.11906
0.847644
0.587246
0.40879
0.305722
2.59964
2.84689
3.07259
3.23376
3.33578
3.38161
3.37001
3.30497
3.19525
3.05141
2.88402
2.70437
2.52242
2.35327
2.20784
2.10107
2.03714
2.01983
2.03784
2.06376
2.06143
2.00185
1.87574
1.68786
1.45639
1.20043
0.939026
0.680844
0.482823
0.356151
2.26532
2.47875
2.71044
2.89468
3.02669
3.10391
3.12293
3.09195
3.01665
2.9053
2.7685
2.617
2.46013
2.31407
2.19002
2.10358
2.05789
2.05388
2.0759
2.09797
2.08936
2.02725
1.90368
1.72446
1.50609
1.26446
1.0158
0.766036
0.561508
0.418936
1.91281
2.10591
2.34949
2.55892
2.72095
2.82483
2.87019
2.87104
2.82814
2.74897
2.64325
2.51957
2.38792
2.26435
2.16126
2.09463
2.06657
2.07465
2.10014
2.11851
2.10405
2.038
1.91633
1.74535
1.53955
1.31258
1.0779
0.840483
0.637764
0.485974
1.56832
1.74855
2.00366
2.23542
2.42362
2.54698
2.61832
2.64851
2.63655
2.58682
2.50867
2.41239
2.30563
2.20386
2.12101
2.07337
2.06164
2.08057
2.10919
2.12423
2.1032
2.03392
1.91404
1.75127
1.55877
1.34672
1.12659
0.903347
0.708544
0.552513
1.31112
1.46571
1.70488
1.94094
2.14423
2.28204
2.37773
2.43309
2.44816
2.42552
2.3727
2.29941
2.21487
2.13396
2.07014
2.04026
2.04306
2.07138
2.10283
2.11516
2.09024
2.01902
1.90169
1.74622
1.5661
1.36885
1.16337
0.955922
0.771617
0.615539
1.13927
1.2595
1.47496
1.70596
1.90071
2.04318
2.15517
2.22954
2.26614
2.26635
2.23482
2.18209
2.11781
2.05632
2.01006
1.99608
2.01162
2.04773
2.08139
2.09171
2.0644
1.99397
1.88033
1.73317
1.56391
1.38091
1.18985
0.999201
0.826107
0.674303
1.03076
1.1053
1.29209
1.51475
1.70586
1.84797
1.96051
2.04369
2.09467
2.11105
2.09781
2.06317
2.01684
1.97271
1.94239
1.94209
1.96819
2.01028
2.04561
2.05475
2.02672
1.95834
1.85091
1.71311
1.55511
1.38445
1.20778
1.03385
0.872495
0.727042
0.977002
0.994967
1.14365
1.35043
1.5415
1.69013
1.80216
1.88329
1.9379
1.9643
1.96509
1.94542
1.91437
1.88517
1.8687
1.87964
1.9139
1.96022
1.99663
2.00543
1.97828
1.91362
1.81445
1.68676
1.54032
1.38164
1.22049
1.06164
0.911664
0.77342
0.999337
0.936008
1.02698
1.2025
1.39271
1.55512
1.67222
1.75152
1.80288
1.83121
1.84021
1.8317
1.81281
1.79578
1.79063
1.81023
1.85016
1.89901
1.93596
1.94519
1.92029
1.86092
1.77063
1.65451
1.52018
1.37435
1.22879
1.08376
0.944484
0.813593
1.09605
0.957029
0.968271
1.09272
1.26037
1.43271
1.56016
1.64047
1.68976
1.71671
1.72732
1.72498
1.71459
1.7067
1.70995
1.73555
1.77871
1.82849
1.86549
1.87583
1.8544
1.80163
1.72093
1.61735
1.49561
1.36455
1.23335
1.10109
0.971678
0.847803
1.27223
1.07073
0.983526
1.03311
1.16226
1.32246
1.45815
1.54373
1.59363
1.61975
1.6298
1.62842
1.62225
1.62014
1.62866
1.65757
1.70168
1.75089
1.78751
1.79948
1.78242
1.73722
1.66685
1.57587
1.46798
1.35255
1.23458
1.11419
0.993818
0.876421
1.52841
1.28722
1.10824
1.04755
1.10949
1.2319
1.36385
1.45645
1.51007
1.53692
1.54677
1.54478
1.53866
1.5384
1.54914
1.57871
1.62167
1.66895
1.70473
1.71862
1.70646
1.66943
1.60994
1.5317
1.43982
1.33915
1.23346
1.12375
1.01147
0.899786
1.86065
1.60069
1.35684
1.17992
1.1278
1.1823
1.28538
1.37825
1.43625
1.46545
1.47597
1.47377
1.46668
1.46426
1.47426
1.50197
1.54191
1.58606
1.62052
1.63636
1.62931
1.6009
1.55271
1.48894
1.41225
1.32533
1.23097
1.13054
1.02524
0.918277
2.25897
1.9916
1.71403
1.4454
1.26208
1.20574
1.24255
1.31557
1.37268
1.40403
1.4159
1.41417
1.40669
1.40162
1.40803
1.43154
1.46687
1.50689
1.53961
1.5573
1.55538
1.53647
1.50038
1.44963
1.3872
1.31254
1.22809
1.13542
1.03584
0.932577
2.71891
2.44697
2.15272
1.82811
1.5289
1.33602
1.26649
1.28471
1.32561
1.35425
1.3667
1.36585
1.35886
1.35252
1.35602
1.37422
1.40393
1.43911
1.47012
1.48983
1.49355
1.48238
1.45656
1.4181
1.36753
1.30292
1.22624
1.13961
1.04425
0.943599
3.23859
2.9616
2.6548
2.29705
1.9157
1.59067
1.39166
1.31223
1.30789
1.32262
1.3318
1.33133
1.32591
1.32045
1.32383
1.3392
1.36479
1.39537
1.42402
1.44399
1.4512
1.44576
1.4291
1.40061
1.3575
1.29944
1.22808
1.14538
1.05211
0.952415
3.82401
3.54009
3.21825
2.834
2.39691
1.96575
1.6303
1.42704
1.34435
1.32344
1.32154
1.31951
1.31721
1.31618
1.32446
1.34224
1.3671
1.39448
1.41932
1.43718
1.44522
1.44337
1.4314
1.4083
1.37
1.315
1.24405
1.15929
1.06342
0.960792
4.49929
4.20535
3.86339
3.44986
2.96777
2.45679
1.99976
1.66228
1.47338
1.39106
1.36355
1.35727
1.36121
1.37181
1.39454
1.42387
1.45408
1.48116
1.50182
1.51426
1.51756
1.51194
1.4973
1.47094
1.42963
1.37086
1.29328
1.198
1.08841
0.974146
5.32561
5.01851
4.65154
4.20433
3.68008
3.10703
2.55112
2.08586
1.77567
1.60962
1.54098
1.52702
1.54715
1.58667
1.64556
1.70566
1.75301
1.78483
1.79803
1.79482
1.77755
1.74909
1.71047
1.66045
1.59654
1.51518
1.41332
1.29145
1.1509
1.00682
6.45611
6.13656
5.74567
5.26877
4.71256
4.0999
3.47724
2.91029
2.4872
2.23252
2.12032
2.11082
2.18141
2.3008
2.45541
2.59509
2.68436
2.72239
2.70954
2.65146
2.56043
2.44809
2.32328
2.1903
2.04816
1.89267
1.71849
1.52416
1.30931
1.09534
8.27827
7.96184
7.57363
7.10719
6.57583
5.99749
5.39868
4.82592
4.37592
4.10502
4.02178
4.1169
4.37386
4.74107
5.16682
5.51566
5.69811
5.72326
5.59305
5.33413
4.98624
4.58969
4.17723
3.76863
3.36976
2.97746
2.58228
2.17754
1.7574
1.35589
11.8618
11.6159
11.3308
11.0119
10.6926
10.3913
10.1058
9.85686
9.71046
9.74667
10.0325
10.6059
11.4518
12.4826
13.5452
14.3331
14.6806
14.615
14.1332
13.3155
12.2575
11.0709
9.84528
8.63938
7.48095
6.3766
5.3158
4.27727
3.24211
2.28129
20.0497
19.9984
20.0103
20.111
20.4091
20.9145
21.5671
22.2552
23.0004
23.936
25.1724
26.7748
28.6715
30.7008
32.5365
33.7673
34.2508
33.9957
32.9676
31.3098
29.1604
26.7109
24.1179
21.477
18.8367
16.2319
13.6722
11.1109
8.50699
6.04799
35.233
35.3525
36.0448
37.1249
38.6793
40.4681
42.183
43.7936
45.2434
46.8962
48.8634
51.0445
53.1975
55.1667
56.4981
57.0453
56.9939
56.2603
54.8518
52.8875
50.4923
47.8173
44.9659
41.9549
38.741
35.3098
31.6532
27.6937
23.3576
18.991
42.9728
43.2788
44.9207
46.9569
48.7116
49.8969
50.6603
51.3129
52.0767
53.2672
54.7286
56.0547
56.8641
57.2304
56.6829
55.5504
54.5107
53.2928
51.9762
50.6061
49.3071
48.1295
47.0898
46.1275
45.1113
43.9934
42.7385
41.3878
39.8956
37.974
9.55353
12.1819
13.2926
13.9989
14.2965
14.2356
13.8893
13.3298
12.6118
11.7866
10.8867
9.95779
9.01729
8.11858
7.28568
6.56929
5.99727
5.67837
5.65484
5.76294
5.70855
5.31285
4.55651
3.5423
2.44065
1.42605
0.785689
0.150835
0.131896
0.58984
5.59271
6.32245
6.69237
6.94774
7.04769
6.99105
6.8033
6.5141
6.1523
5.74159
5.3039
4.85656
4.41712
3.99991
3.6283
3.32072
3.10644
3.0446
3.17248
3.37732
3.46767
3.33672
2.98617
2.48049
1.88783
1.2722
0.730172
0.355873
0.329794
0.261946
5.04832
5.49228
5.73997
5.87356
5.89763
5.81901
5.65294
5.4153
5.12209
4.78954
4.43478
4.07229
3.71699
3.38289
3.08898
2.8557
2.70543
2.68605
2.825
3.02882
3.14101
3.07011
2.82092
2.42412
1.93267
1.40455
0.899322
0.496008
0.382204
0.308195
4.76645
5.08753
5.294
5.40272
5.41967
5.35281
5.21288
5.01133
4.75948
4.47015
4.15807
3.83668
3.51975
3.22365
2.96684
2.76971
2.65076
2.65202
2.7843
2.9657
3.07072
3.0191
2.80577
2.4598
2.02649
1.54466
1.06265
0.633527
0.41409
0.30692
4.49149
4.71526
4.90091
5.01545
5.0525
5.01643
4.91103
4.74626
4.53201
4.27988
4.00322
3.7147
3.42918
3.16357
2.93654
2.76929
2.67865
2.698
2.82221
2.97892
3.06178
3.00869
2.81272
2.49945
2.10542
1.66135
1.20495
0.770896
0.485392
0.334303
4.15805
4.29982
4.47617
4.61053
4.68167
4.68678
4.62289
4.49832
4.32272
4.10786
3.86641
3.6108
3.356
3.12043
2.92316
2.78661
2.7248
2.76159
2.878
3.00818
3.06603
3.0022
2.81239
2.52246
2.15967
1.74983
1.32209
0.899942
0.580861
0.39131
3.78151
3.84997
4.01596
4.17298
4.28392
4.33295
4.31529
4.23356
4.09856
3.92273
3.71813
3.49725
3.27438
3.07028
2.90442
2.80024
2.7688
2.82246
2.93146
3.03587
3.06754
2.98969
2.80148
2.52523
2.19023
1.81245
1.4148
1.01437
0.684231
0.466504
3.37278
3.37995
3.53313
3.71076
3.86078
3.95379
3.98163
3.94494
3.85256
3.71684
3.55031
3.36574
3.17712
3.00581
2.87312
2.80292
2.8025
2.872
2.97371
3.05399
3.0606
2.96793
2.77925
2.51433
2.20075
1.85289
1.48531
1.11111
0.785296
0.549298
2.93338
2.90044
3.04509
3.24055
3.42484
3.55824
3.62815
3.63559
3.58616
3.49109
3.36351
3.21588
3.06306
2.92578
2.82741
2.79229
2.82212
2.90571
2.99997
3.05868
3.04189
2.93617
2.7465
2.49223
2.19617
1.87517
1.53639
1.1907
0.877376
0.633532
2.48291
2.43174
2.57426
2.78469
2.99459
3.16061
3.26756
3.3137
3.30548
3.25022
3.16116
3.05041
2.93351
2.83152
2.76772
2.76759
2.82583
2.92064
3.00792
3.04683
3.00997
2.89388
2.70438
2.46088
2.18186
1.88282
1.5714
1.25445
0.957101
0.712473
2.1087
2.03449
2.16348
2.37319
2.59397
2.77894
2.91405
2.99185
3.01868
3.00065
2.94834
2.8733
2.79153
2.72465
2.69536
2.7288
2.81232
2.91685
2.99576
3.01685
2.96411
2.84046
2.65399
2.42186
2.15941
1.87985
1.59448
1.3032
1.02341
0.783202
1.81432
1.70869
1.81428
2.01442
2.23738
2.43389
2.58456
2.6827
2.73651
2.74979
2.7308
2.68912
2.64069
2.60777
2.61133
2.6759
2.78059
2.89052
2.96249
2.96832
2.90415
2.77669
2.5966
2.37639
2.13048
1.87071
1.61021
1.33964
1.07668
0.844175
1.59895
1.45503
1.52721
1.70797
1.92537
2.12653
2.28685
2.39977
2.47039
2.50629
2.51472
2.50264
2.48479
2.48363
2.51654
2.60897
2.73017
2.84311
2.9075
2.90183
2.83071
2.70341
2.53196
2.32535
2.09669
1.8582
1.61717
1.36516
1.11784
0.894661
1.46545
1.28009
1.30632
1.45457
1.65694
1.85681
2.02247
2.1448
2.22833
2.27967
2.30697
2.31878
2.32777
2.35389
2.41276
2.52844
2.66136
2.77488
2.83194
2.81859
2.74476
2.62143
2.46061
2.26992
2.05998
1.84296
1.61651
1.38117
1.14817
0.934927
1.43445
1.20385
1.16448
1.26242
1.43496
1.62475
1.79122
1.91905
2.01109
2.07364
2.11482
2.14292
2.17289
2.22132
2.3021
2.43551
2.57531
2.68756
2.73836
2.72096
2.64837
2.53243
2.38464
2.21235
2.02445
1.82443
1.61138
1.38965
1.16919
0.965752
1.49608
1.24211
1.1244
1.14794
1.27004
1.43449
1.59377
1.72287
1.81985
1.88984
1.94097
1.98041
2.02445
2.08936
2.18712
2.33243
2.47489
2.58447
2.63067
2.61252
2.54473
2.4394
2.30747
2.15726
1.98963
1.80377
1.60262
1.39172
1.18231
0.988181
1.65297
1.38251
1.20119
1.13368
1.18167
1.29735
1.4349
1.55799
1.65565
1.72961
1.7872
1.83491
1.88762
1.9624
2.07159
2.22332
2.36514
2.47116
2.51478
2.4989
2.43926
2.34784
2.23655
2.10769
1.95573
1.78242
1.59146
1.38958
1.18918
1.0034
1.92479
1.6414
1.40972
1.25066
1.19315
1.23456
1.32647
1.42993
1.52123
1.59487
1.65569
1.70889
1.76819
1.84678
1.9619
2.11542
2.2545
2.35666
2.39997
2.38968
2.34238
2.27007
2.17793
2.06462
1.92542
1.76228
1.5795
1.38497
1.19129
1.01267
2.3143
2.01554
1.74587
1.50847
1.34075
1.27182
1.28861
1.35057
1.42302
1.48974
1.55012
1.60651
1.67102
1.7536
1.8696
2.02171
2.15765
2.25658
2.30259
2.30367
2.27142
2.21391
2.13555
2.03278
1.90239
1.74617
1.56888
1.37949
1.19052
1.0175
2.8162
2.49789
2.19508
1.89658
1.62905
1.43874
1.34827
1.33803
1.37399
1.42306
1.47818
1.53584
1.60621
1.69665
1.8179
1.96677
2.10209
2.20115
2.25308
2.2628
2.24036
2.19254
2.11962
2.01943
1.89206
1.73804
1.5625
1.37536
1.18906
1.0196
3.43238
3.08799
2.74947
2.39891
2.04997
1.74522
1.53257
1.42333
1.3951
1.41253
1.45668
1.51529
1.59515
1.69869
1.83647
1.99345
2.13316
2.23313
2.28768
2.30176
2.28314
2.23645
2.16238
2.05869
1.9207
1.754
1.56923
1.3772
1.18944
1.02115
4.18004
3.80213
3.42133
3.01906
2.60139
2.19978
1.86836
1.64474
1.5314
1.50002
1.52423
1.5859
1.68433
1.81718
1.99116
2.17556
2.32891
2.43461
2.48924
2.49929
2.47045
2.40738
2.3131
2.18752
2.02805
1.83683
1.62265
1.40541
1.20287
1.02732
5.10837
4.69002
4.26068
3.80425
3.32487
2.84493
2.41268
2.07797
1.86925
1.77851
1.77821
1.85248
1.99199
2.18592
2.44102
2.68965
2.87868
2.99734
3.0458
3.03205
2.9613
2.84368
2.68848
2.50087
2.28224
2.0358
1.76979
1.50319
1.25634
1.05186
6.33569
5.87382
5.39598
4.8898
4.36079
3.82678
3.32658
2.90914
2.62142
2.48156
2.47454
2.59764
2.83744
3.17283
3.60523
3.99675
4.26343
4.40377
4.42406
4.33016
4.13989
3.87705
3.56676
3.22671
2.86607
2.49127
2.11068
1.74246
1.405
1.13222
8.13582
7.64306
7.13678
6.60902
6.06915
5.53559
5.0394
4.62144
4.337
4.22689
4.30633
4.599
5.09583
5.76162
6.57618
7.25884
7.67036
7.83158
7.74563
7.43169
6.9373
6.31818
5.63582
4.93684
4.24538
3.57459
2.93175
2.33094
1.79097
1.35309
11.1616
10.6907
10.2196
9.75182
9.30609
8.90912
8.59105
8.38173
8.32849
8.49607
8.93142
9.6911
10.7726
12.1095
13.6165
14.7732
15.384
15.5203
15.1612
14.3741
13.2486
11.8964
10.4443
8.99019
7.58852
6.26784
5.03574
3.89566
2.86371
2.01861
16.9656
16.6138
16.2895
16.0389
15.8969
15.9099
16.1075
16.4894
17.0799
17.9418
19.1511
20.782
22.8183
25.1187
27.4624
29.063
29.78
29.7497
28.9341
27.4623
25.4571
23.083
20.5063
17.8808
15.2962
12.8065
10.4493
8.19714
6.06342
4.22403
27.9953
27.9728
28.0229
28.2074
28.6506
29.4203
30.4453
31.681
33.1302
34.8812
37.0034
39.5402
42.412
45.3148
47.8013
48.9886
49.2512
48.6886
47.3774
45.4262
42.9575
40.1033
36.9621
33.6075
30.0683
26.3731
22.6629
18.8661
14.9802
11.3437
43.1243
43.1657
44.0993
45.4906
47.0247
48.5105
49.9649
51.4629
53.1042
55.0688
57.3542
59.8114
62.1708
63.8753
64.3054
63.0624
61.7329
60.0858
58.3717
56.5293
54.6914
52.9088
51.1479
49.2594
47.0762
44.471
41.1646
37.3316
32.936
28.322
47.4977
48.1784
49.942
52.0731
53.9844
55.3856
56.3284
57.1272
58.0722
59.3577
60.8283
62.0815
62.7228
62.4941
60.956
58.0929
55.8013
53.6095
51.8102
50.3232
49.2698
48.62
48.3064
48.1462
47.9409
47.5571
46.941
46.1081
45.0401
43.6809
13.1139
16.5081
17.7681
18.4356
18.7293
18.6236
18.1721
17.4539
16.5309
15.4654
14.2913
13.0672
11.8083
10.5937
9.45758
8.4915
7.78497
7.69817
8.35259
9.19125
9.4517
8.87923
7.59217
5.86407
3.97896
2.23094
0.906138
0.645963
0.131522
0.606992
7.44502
8.27996
8.63281
8.81143
8.87273
8.78272
8.54445
8.18558
7.73764
7.22681
6.67841
6.10985
5.5472
5.00458
4.52228
4.12433
3.88865
4.00396
4.55499
5.18531
5.45448
5.24666
4.6704
3.87152
2.95445
1.96444
1.05264
0.452255
0.297578
0.260709
6.76575
7.20089
7.41045
7.49941
7.48249
7.36036
7.14048
6.83473
6.46139
6.03759
5.58296
5.1116
4.64639
4.20385
3.81693
3.51177
3.34843
3.48113
3.96251
4.508
4.77483
4.65968
4.24823
3.65683
2.92009
2.09754
1.29041
0.611253
0.373023
0.289185
6.49
6.7427
6.91436
6.997
6.98295
6.87496
6.68069
6.40898
6.07453
5.6915
5.27756
4.84548
4.41844
4.01676
3.6723
3.41112
3.28793
3.436
3.86191
4.32696
4.56505
4.4753
4.13378
3.61421
2.97154
2.24183
1.49443
0.788466
0.435572
0.297447
6.22012
6.34906
6.50523
6.60752
6.62718
6.55752
6.39979
6.16371
5.86415
5.51499
5.13286
4.73161
4.33542
3.96548
3.65528
3.43336
3.35216
3.52026
3.90623
4.29761
4.48412
4.39022
4.07258
3.59408
3.01441
2.35388
1.65973
0.96568
0.529258
0.33431
5.87174
5.90749
6.0544
6.18894
6.25579
6.23796
6.1268
5.93269
5.67205
5.35955
5.012
4.64299
4.27882
3.94171
3.66762
3.48849
3.45539
3.6475
3.99702
4.32072
4.44764
4.3341
4.02089
3.56812
3.03131
2.42969
1.78842
1.12788
0.647453
0.398325
5.45028
5.40965
5.54622
5.71244
5.83076
5.86804
5.81118
5.66555
5.45006
5.17982
4.87294
4.5402
4.21152
3.91198
3.67924
3.54931
3.57035
3.78758
4.10245
4.35684
4.42562
4.2831
3.9667
3.53131
3.0251
2.47433
1.88456
1.26852
0.775419
0.483085
4.97427
4.86581
4.98972
5.18191
5.3489
5.44009
5.44152
5.35017
5.18491
4.96199
4.70105
4.41145
4.12247
3.86551
3.68067
3.6066
3.68531
3.92503
4.20501
4.39365
4.40403
4.22925
3.90673
3.4844
3.00481
2.49468
1.95344
1.38661
0.901083
0.579062
4.45821
4.28406
4.40039
4.61333
4.82215
4.96466
5.02203
4.98821
4.87702
4.7056
4.49492
4.25361
4.00948
3.79987
3.66841
3.65643
3.79378
4.05002
4.29326
4.41957
4.37478
4.16929
3.84059
3.42966
2.97369
2.4956
2.00049
1.48388
1.0162
0.677132
3.9183
3.6925
3.80014
4.02944
4.2707
4.45778
4.56725
4.58844
4.533
4.41547
4.25807
4.0688
3.87468
3.71654
3.64318
3.69741
3.89009
4.15442
4.35855
4.42646
4.33255
4.10159
3.76884
3.36946
2.93577
2.48822
2.03569
1.55978
1.11547
0.769879
3.3804
3.13903
3.23187
3.46086
3.72122
3.94164
4.09621
4.16532
4.16389
4.1001
3.99697
3.86169
3.72059
3.61849
3.60629
3.7282
3.96856
4.2311
4.39378
4.40836
4.27396
4.02481
3.69212
3.3061
2.89465
2.47778
2.05751
1.61526
1.19587
0.85297
2.92218
2.65157
2.71896
2.93544
3.20148
3.44371
3.63094
3.7387
3.78304
3.77016
3.71964
3.63821
3.55181
3.50898
3.5581
3.74638
4.023
4.27306
4.39632
4.36251
4.19765
3.9385
3.61161
3.24194
2.85428
2.46333
2.06359
1.65134
1.25695
0.923283
2.54596
2.24033
2.27306
2.46557
2.72517
2.97787
3.18596
3.32756
3.40863
3.43739
3.43498
3.40484
3.3736
3.38963
3.49995
3.74938
4.04727
4.27953
4.36055
4.28938
4.1045
3.84411
3.52937
3.17981
2.81761
2.44334
2.05863
1.67067
1.29975
0.979184
2.24949
1.9166
1.90529
2.06196
2.30215
2.55386
2.77345
2.9402
3.05143
3.11601
3.1522
3.16757
3.19071
3.26304
3.43265
3.73293
4.04027
4.24442
4.28874
4.19149
3.99754
3.74468
3.44887
3.12519
2.78247
2.41848
2.04595
1.67507
1.32598
1.02063
2.05532
1.69969
1.6304
1.73832
1.94358
2.18079
2.40227
2.5836
2.71922
2.81325
2.88193
2.93478
3.00751
3.13359
3.35769
3.69544
3.99619
4.17255
4.18657
4.07486
3.88329
3.64639
3.37775
3.07806
2.74598
2.39017
2.02704
1.6695
1.33835
1.04865
1.97794
1.61615
1.47218
1.51436
1.66503
1.87035
2.0811
2.26646
2.4175
2.53505
2.6304
2.71486
2.83027
3.00668
3.27803
3.63826
3.9227
4.07197
4.06522
3.95106
3.7735
3.56409
3.32108
3.0357
2.71016
2.35989
2.00362
1.65697
1.33862
1.06468
2.02528
1.66978
1.46683
1.4142
1.48714
1.63868
1.8211
1.99823
2.15477
2.28779
2.40517
2.51781
2.66741
2.88944
3.19985
3.56899
3.83241
3.9585
3.94388
3.8405
3.69382
3.50885
3.27923
2.99925
2.67703
2.32949
1.97764
1.6395
1.3323
1.07109
2.19495
1.84132
1.59265
1.45576
1.43286
1.50723
1.63832
1.79023
1.94066
2.08045
2.21466
2.35207
2.53464
2.7933
3.13583
3.50495
3.7486
3.86079
3.85525
3.78371
3.65755
3.47598
3.253
2.97286
2.64968
2.30172
1.95172
1.61952
1.32133
1.07017
2.52096
2.15859
1.8683
1.65196
1.52553
1.49485
1.55404
1.65834
1.78787
1.92483
2.07068
2.23077
2.44981
2.73752
3.1109
3.4788
3.71347
3.83049
3.85595
3.79547
3.66268
3.49145
3.2526
2.96306
2.6334
2.281
1.92947
1.6002
1.30829
1.06564
3.01705
2.62636
2.29166
2.00358
1.77699
1.63521
1.58932
1.62465
1.71622
1.84034
1.99362
2.17869
2.43503
2.76762
3.17461
3.55169
3.80801
3.94423
3.98058
3.91133
3.77976
3.60454
3.34181
3.01029
2.64529
2.27438
1.91613
1.58568
1.29644
1.05965
3.68087
3.24899
2.86398
2.50929
2.19319
1.94168
1.78372
1.72639
1.758
1.8562
2.01918
2.23846
2.55021
2.94751
3.42243
3.84433
4.13513
4.28845
4.31146
4.22569
4.09193
3.87041
3.55447
3.16996
2.74633
2.3199
1.92819
1.58238
1.2899
1.05516
4.53523
4.05169
3.6098
3.19044
2.79637
2.4486
2.18293
2.02774
1.98845
2.05617
2.23107
2.50034
2.8985
3.40702
4.00971
4.52768
4.88041
5.03661
5.03448
4.93512
4.74928
4.41759
3.98924
3.5049
2.99669
2.49377
2.02694
1.62657
1.30546
1.05937
5.64678
5.10558
4.60429
4.12438
3.66599
3.24431
2.89342
2.65425
2.55432
2.6001
2.81043
3.17377
3.72253
4.42433
5.26376
5.95488
6.41527
6.55919
6.54279
6.39865
6.03828
5.49383
4.85175
4.17715
3.50974
2.87513
2.29348
1.79641
1.39582
1.10151
7.17224
6.57797
6.02675
5.50286
5.00651
4.54984
4.16319
3.89218
3.78119
3.86252
4.17892
4.73473
5.56268
6.60522
7.85824
8.82333
9.45246
9.61445
9.60964
9.22543
8.5154
7.5828
6.55944
5.53721
4.57072
3.6847
2.88904
2.20659
1.65075
1.24688
9.46462
8.84255
8.27429
7.75038
7.27454
6.86078
6.53971
6.35914
6.37136
6.64378
7.23157
8.17028
9.49555
11.1025
12.987
14.2892
15.1391
15.4181
15.1748
14.3799
13.1158
11.5541
9.91337
8.30786
6.80881
5.45537
4.24422
3.18711
2.3064
1.64766
13.2577
12.6951
12.1714
11.7326
11.3901
11.1636
11.0891
11.2214
11.6184
12.3455
13.4668
15.0471
17.1241
19.5035
22.1203
23.6674
24.6128
24.7954
24.1804
22.8712
20.9516
18.6069
16.1807
13.7673
11.4594
9.33729
7.38478
5.60572
4.03956
2.81282
19.8126
19.4659
19.1625
18.9273
18.8783
19.0342
19.4508
20.1594
21.1901
22.6024
24.4457
26.8011
29.7018
32.7715
35.8255
36.8225
36.9123
36.2415
35.1278
33.5449
31.5589
29.2144
26.3852
23.3463
20.2218
17.209
14.2459
11.3401
8.56215
6.22406
30.3306
30.1989
30.3525
30.7317
31.1812
31.8464
32.8142
34.0877
35.6776
37.6416
40.003
42.8175
46.0403
48.9409
50.8443
49.1615
47.6982
46.0045
44.4968
42.9329
41.3527
39.6845
37.8507
35.7352
33.2325
30.1337
26.6354
22.817
18.7408
15.0114
42.0201
42.1964
43.0885
44.3181
45.6216
46.8945
48.1108
49.4097
50.9348
52.744
54.8306
57.1326
59.3857
60.2853
59.6236
55.1008
52.0892
49.4898
47.6858
46.3371
45.4945
45.0057
44.6894
44.2887
43.5329
42.2652
40.3275
37.7861
34.603
31.0433
43.8661
44.9243
46.7026
48.7011
50.5206
51.9639
53.0543
54.0193
55.0858
56.3834
57.7759
58.9144
59.4932
58.5138
55.5541
49.522
45.7994
42.8706
41.0095
39.8247
39.3914
39.6484
40.3957
41.3174
42.1482
42.7184
42.9172
42.7646
42.318
41.6676
17.2965
21.4255
22.7477
23.2636
23.4195
23.1859
22.5725
21.6545
20.4936
19.1547
17.6645
16.0915
14.447
12.8434
11.3332
10.0752
9.31307
10.0145
12.3552
14.6641
15.3488
14.3489
12.2011
9.47963
6.5447
3.74173
1.54647
0.149838
0.13029
0.578081
9.56161
10.4403
10.7371
10.8116
10.7894
10.6408
10.3418
9.90861
9.37156
8.75414
8.0846
7.37495
6.66339
5.95918
5.33389
4.81011
4.5757
5.1205
6.54036
7.86934
8.3013
7.88611
6.96787
5.81443
4.53017
3.11676
1.69668
0.503185
0.229185
0.248362
8.66904
9.03731
9.15629
9.1696