/*--------------------------------*- C++ -*----------------------------------*\
| =========                 |                                                 |
| \\      /  F ield         | OpenFOAM: The Open Source CFD Toolbox           |
|  \\    /   O peration     | Version:  5.0                                   |
|   \\  /    A nd           | Web:      www.OpenFOAM.org                      |
|    \\/     M anipulation  |                                                 |
\*---------------------------------------------------------------------------*/
FoamFile
{
    version     2.0;
    format      ascii;
    class       volScalarField;
    location    "1750/air";
    object      k;
}
// * * * * * * * * * * * * * * * * * * * * * * * * * * * * * * * * * * * * * //

dimensions      [0 2 -2 0 0 0 0];

internalField   nonuniform List<scalar> 
243000
(
0.0751756
0.0839435
0.0868153
0.0875366
0.0865205
0.0842728
0.0810949
0.0772675
0.0730236
0.0685949
0.0641332
0.0597517
0.0554628
0.0513566
0.0474833
0.0439704
0.0409167
0.0400545
0.037539
0.03756
0.0352672
0.0336855
0.0317891
0.0302914
0.0283308
0.0262168
0.0238525
0.0219161
0.0186187
0.0199419
0.113344
0.126933
0.129896
0.129294
0.126452
0.122122
0.116824
0.110966
0.104802
0.0985533
0.0923358
0.0862529
0.0803244
0.0747025
0.0694784
0.0647948
0.0607406
0.0577092
0.0555409
0.0540883
0.0532158
0.0519004
0.0497994
0.0466291
0.0425368
0.0378392
0.0328329
0.0274214
0.0225901
0.024977
0.13176
0.146478
0.1507
0.150416
0.147398
0.142596
0.136643
0.129996
0.122958
0.115805
0.108671
0.101691
0.0949134
0.0885343
0.0826691
0.0774855
0.0730712
0.0697393
0.0674672
0.0660621
0.064976
0.0635635
0.0612468
0.0576932
0.0529781
0.0472866
0.0409159
0.0338374
0.0277027
0.02628
0.140374
0.156111
0.16173
0.162559
0.160256
0.155882
0.150104
0.143416
0.136166
0.128673
0.12112
0.113694
0.106475
0.0997014
0.093523
0.0881375
0.0836324
0.0803004
0.078037
0.0765651
0.0753165
0.073694
0.0711106
0.0672184
0.0620249
0.0556874
0.0484727
0.0403458
0.0332215
0.0289345
0.141867
0.157666
0.165572
0.168144
0.167127
0.163739
0.15866
0.152422
0.145413
0.137997
0.130405
0.122874
0.115525
0.108643
0.102402
0.097038
0.0926324
0.0894443
0.0872658
0.0857418
0.0843134
0.0824384
0.0795774
0.0753962
0.0698698
0.0631203
0.0553977
0.0465953
0.0387311
0.0331416
0.138593
0.154396
0.164183
0.168777
0.169459
0.167389
0.163354
0.157896
0.151448
0.144416
0.137065
0.129688
0.122449
0.115681
0.109561
0.104386
0.100214
0.0972568
0.0952054
0.0936475
0.0920437
0.089912
0.0867847
0.0823619
0.0766067
0.0696078
0.0615908
0.0524412
0.0439922
0.0375009
0.13153
0.147889
0.159355
0.165837
0.168333
0.167853
0.165012
0.160492
0.154846
0.14843
0.141537
0.134513
0.127563
0.121072
0.115216
0.110352
0.106504
0.103829
0.10193
0.100357
0.0985965
0.0962278
0.0928607
0.0882396
0.0823303
0.0751953
0.0670254
0.057716
0.0488584
0.0414825
0.121587
0.138886
0.151876
0.160197
0.164537
0.165694
0.16429
0.160944
0.156131
0.150441
0.144173
0.137656
0.131134
0.125033
0.119552
0.115082
0.111619
0.109252
0.107521
0.105953
0.104064
0.101493
0.0979222
0.0931454
0.0871372
0.0799464
0.0717225
0.0623892
0.0532893
0.0452227
0.109885
0.128195
0.142569
0.15259
0.158722
0.161507
0.161585
0.159506
0.155813
0.150958
0.145291
0.139381
0.133386
0.12776
0.122729
0.118707
0.115664
0.113615
0.112059
0.110516
0.108535
0.105805
0.102074
0.0971853
0.0911241
0.0839342
0.0757479
0.0663963
0.0571975
0.0487202
0.0988789
0.117263
0.132384
0.143724
0.151454
0.155811
0.157359
0.156607
0.154039
0.15013
0.145315
0.139972
0.134523
0.129426
0.124892
0.121346
0.118734
0.117
0.115622
0.114126
0.112089
0.10925
0.105408
0.100453
0.094382
0.087257
0.0790809
0.0697554
0.0606107
0.0518994
0.0890643
0.106609
0.122325
0.134605
0.143338
0.149074
0.152004
0.152562
0.151152
0.14823
0.144227
0.139617
0.134768
0.130186
0.126169
0.123107
0.120917
0.119485
0.118286
0.116856
0.114804
0.111904
0.108005
0.103031
0.0970098
0.0899279
0.0817884
0.0725688
0.0635713
0.0547474
0.0813768
0.0963938
0.112255
0.125445
0.135252
0.141928
0.145917
0.147657
0.147388
0.145463
0.142314
0.138419
0.134201
0.130204
0.126681
0.124086
0.122297
0.121149
0.120125
0.118779
0.11675
0.113842
0.109937
0.105007
0.0990363
0.0920126
0.0839316
0.0750009
0.0661598
0.057294
0.0771097
0.0872426
0.102237
0.116113
0.127022
0.134752
0.139661
0.142219
0.142967
0.142014
0.13972
0.136565
0.132979
0.129541
0.126521
0.124371
0.122954
0.122068
0.121209
0.119964
0.117992
0.115129
0.111286
0.10641
0.10051
0.0935624
0.0855622
0.0770258
0.0683917
0.0595418
0.0776033
0.0805127
0.0927266
0.106632
0.118539
0.127409
0.133341
0.136761
0.138194
0.138077
0.136597
0.134173
0.131215
0.128322
0.125783
0.124044
0.122952
0.122311
0.121611
0.120481
0.118607
0.115822
0.11205
0.107266
0.101472
0.0946239
0.0867765
0.0786671
0.0702803
0.061495
0.083587
0.0782534
0.0849231
0.0973717
0.109824
0.119809
0.126856
0.131226
0.133423
0.133917
0.133105
0.131359
0.129013
0.126639
0.12455
0.123183
0.122384
0.121953
0.121401
0.120377
0.118585
0.1159
0.112244
0.107594
0.10195
0.0952401
0.0877693
0.0800093
0.0718623
0.0631665
0.0943423
0.082585
0.0809843
0.0893445
0.101176
0.111966
0.120135
0.12554
0.128585
0.12975
0.129473
0.128257
0.126464
0.124579
0.122901
0.121865
0.121319
0.12107
0.120657
0.119755
0.118096
0.115518
0.111983
0.107466
0.101965
0.0954477
0.0884668
0.0810629
0.0731565
0.0645677
0.108373
0.0936099
0.0836918
0.084602
0.09347
0.104131
0.113198
0.119659
0.123625
0.125527
0.125837
0.125048
0.123677
0.122222
0.120912
0.120164
0.119831
0.119736
0.119454
0.118678
0.11716
0.114749
0.111357
0.106994
0.101654
0.095506
0.0889299
0.081856
0.0741824
0.0657091
0.124679
0.109232
0.0940725
0.0858931
0.0885147
0.0970339
0.106258
0.113609
0.118516
0.121213
0.122155
0.121848
0.120806
0.119661
0.118658
0.118152
0.117992
0.118028
0.117867
0.11722
0.115851
0.113617
0.110416
0.10623
0.101104
0.09539
0.0891844
0.0824139
0.0749588
0.0666025
0.14092
0.126207
0.109601
0.0947435
0.0885092
0.0920743
0.0998846
0.107563
0.113287
0.116794
0.118404
0.118622
0.117957
0.117015
0.116226
0.115905
0.115879
0.116023
0.115972
0.115455
0.114242
0.112192
0.10921
0.105235
0.100484
0.0951433
0.0892584
0.082763
0.0755073
0.0672639
0.157524
0.143584
0.127273
0.10947
0.0954665
0.09117
0.0951585
0.101956
0.108078
0.112297
0.11458
0.115345
0.1151
0.114414
0.113743
0.113513
0.113577
0.113801
0.113848
0.113458
0.112404
0.110544
0.107796
0.104156
0.0997896
0.094791
0.0891922
0.0829375
0.0758562
0.0677135
0.174364
0.161021
0.145366
0.127042
0.108458
0.0960547
0.0935412
0.097569
0.103202
0.107829
0.110711
0.11202
0.112216
0.11183
0.111326
0.111113
0.111183
0.111451
0.111578
0.111307
0.110413
0.108755
0.106323
0.103057
0.0990459
0.0943647
0.0890283
0.0829741
0.076039
0.0679812
0.191249
0.178319
0.163198
0.145207
0.124893
0.106535
0.0964211
0.0954426
0.0992042
0.103618
0.106878
0.108674
0.109305
0.109253
0.108957
0.108815
0.108895
0.109148
0.109318
0.109151
0.108438
0.107033
0.104898
0.101975
0.0982963
0.0939105
0.0888128
0.0829296
0.0761005
0.0680974
0.208282
0.195467
0.180597
0.162981
0.142367
0.120799
0.104034
0.0966099
0.0968005
0.100036
0.103253
0.105384
0.106409
0.106695
0.106643
0.106618
0.106743
0.107003
0.107212
0.107138
0.106587
0.105412
0.103557
0.100953
0.0975954
0.0934934
0.0886158
0.0828719
0.0761013
0.0681057
0.224757
0.211973
0.197243
0.179936
0.159523
0.136688
0.115381
0.101503
0.0967378
0.0976077
0.100132
0.102312
0.103628
0.104233
0.104445
0.104582
0.104786
0.105078
0.105327
0.105338
0.104931
0.103967
0.102372
0.100072
0.0970197
0.0931942
0.0885212
0.0828917
0.0761295
0.0680884
0.24038
0.227649
0.213046
0.195989
0.175926
0.152875
0.129102
0.109951
0.0996535
0.0970017
0.0980311
0.0998307
0.101256
0.102127
0.102619
0.102964
0.10329
0.103639
0.103931
0.10401
0.10372
0.102933
0.101559
0.0995144
0.0967254
0.0931449
0.0886791
0.0831558
0.0763546
0.0681842
0.25557
0.242922
0.228471
0.211698
0.192076
0.169336
0.144599
0.121875
0.106371
0.0994201
0.0980491
0.0989425
0.100253
0.101349
0.102174
0.102809
0.103316
0.103745
0.104056
0.104144
0.103885
0.103169
0.101909
0.100026
0.0974273
0.0940349
0.0897004
0.0841882
0.0771826
0.068703
0.2718
0.259449
0.245332
0.229006
0.210024
0.188052
0.16351
0.139049
0.119502
0.108099
0.103696
0.10317
0.104204
0.10562
0.106983
0.108083
0.108851
0.109332
0.109523
0.109385
0.108857
0.107886
0.106419
0.104388
0.101689
0.0982013
0.0937277
0.0879109
0.080338
0.0710277
0.293264
0.281639
0.268354
0.253164
0.235805
0.215948
0.193559
0.170028
0.148994
0.134565
0.127545
0.12581
0.126899
0.129144
0.131508
0.133298
0.134242
0.134435
0.133916
0.132772
0.131065
0.128883
0.126256
0.123141
0.119378
0.114812
0.109229
0.102126
0.0927883
0.0810708
0.337461
0.327959
0.317825
0.307009
0.295275
0.282103
0.266915
0.250074
0.233304
0.220658
0.214142
0.212935
0.214986
0.21874
0.222272
0.224475
0.224881
0.223854
0.221557
0.218184
0.213982
0.209212
0.204046
0.198422
0.191732
0.18394
0.175378
0.165044
0.151939
0.135784
0.50414
0.502008
0.502441
0.502668
0.502038
0.499982
0.495908
0.490124
0.481195
0.473395
0.468363
0.466025
0.465599
0.467764
0.469819
0.471059
0.470538
0.469885
0.468916
0.468034
0.4671
0.46638
0.465764
0.464987
0.460764
0.454055
0.448289
0.439506
0.427668
0.412202
0.110445
0.127711
0.133996
0.135973
0.13488
0.131594
0.126773
0.120953
0.114494
0.107703
0.100755
0.0938709
0.087135
0.0808
0.0749733
0.0699146
0.0657568
0.0628518
0.0612553
0.06046
0.0593925
0.0569464
0.0525142
0.0460111
0.0379573
0.029102
0.0250563
0.022256
0.0210669
0.0214976
0.172242
0.197308
0.202781
0.200252
0.19333
0.18403
0.173518
0.16252
0.151465
0.140675
0.13027
0.120433
0.111152
0.102697
0.0951549
0.0887963
0.0836328
0.0802729
0.0788446
0.0788476
0.0789032
0.0775855
0.0736824
0.0667384
0.0572722
0.0461631
0.0356497
0.0300208
0.0335099
0.0291295
0.203579
0.232541
0.241781
0.241112
0.234997
0.225667
0.214497
0.202349
0.18979
0.177291
0.165067
0.153402
0.142334
0.132262
0.123368
0.116
0.110119
0.106362
0.104665
0.104405
0.104133
0.102385
0.0977787
0.0897056
0.0785346
0.065115
0.0510295
0.0389774
0.0372725
0.0364572
0.216822
0.247443
0.259357
0.261412
0.257628
0.250114
0.240151
0.228659
0.216283
0.203594
0.19091
0.178626
0.166867
0.156152
0.146789
0.13918
0.133247
0.129524
0.12769
0.12702
0.126111
0.123632
0.118252
0.109286
0.0970117
0.0821423
0.0659356
0.0497994
0.04104
0.0371772
0.217021
0.245749
0.261386
0.267697
0.267203
0.262424
0.25457
0.244688
0.233422
0.221446
0.209162
0.197061
0.185367
0.174715
0.16552
0.158224
0.152694
0.149295
0.147458
0.146368
0.144756
0.141485
0.135381
0.125778
0.112875
0.0972646
0.079989
0.0616629
0.0482072
0.0405787
0.210495
0.236705
0.254764
0.264337
0.267521
0.265845
0.260498
0.252827
0.24321
0.23255
0.221247
0.209899
0.198817
0.188739
0.180159
0.173569
0.168751
0.165864
0.164107
0.162631
0.160338
0.156303
0.149559
0.139523
0.126339
0.110479
0.0928231
0.0736234
0.0575214
0.0468815
0.198344
0.222193
0.241603
0.254243
0.260974
0.262749
0.260502
0.254857
0.247079
0.238215
0.228317
0.218151
0.208078
0.198951
0.191289
0.185683
0.181782
0.179519
0.177905
0.176098
0.173189
0.168463
0.161176
0.150861
0.137645
0.121882
0.1043
0.0849955
0.0676029
0.0547281
0.181488
0.20274
0.223593
0.239254
0.249482
0.25437
0.254876
0.252001
0.246812
0.239656
0.231252
0.222628
0.213843
0.205921
0.199399
0.194956
0.192093
0.190517
0.189093
0.18703
0.1836
0.178293
0.17057
0.160101
0.147027
0.131604
0.114408
0.0954585
0.0776525
0.0632023
0.160074
0.179899
0.202365
0.220917
0.234465
0.242114
0.245435
0.245469
0.242729
0.237719
0.231324
0.224086
0.216704
0.210129
0.204898
0.201714
0.199942
0.199071
0.197881
0.195647
0.191816
0.186059
0.178026
0.167526
0.154729
0.13981
0.123217
0.104948
0.0872794
0.0717233
0.139964
0.157712
0.180463
0.200929
0.217268
0.227453
0.233659
0.236392
0.236163
0.233355
0.228804
0.223135
0.217218
0.212005
0.208137
0.20624
0.205547
0.205369
0.204451
0.20214
0.198037
0.191979
0.183781
0.173388
0.160984
0.146698
0.130799
0.113435
0.0961821
0.0798978
0.124382
0.138267
0.159696
0.181586
0.199594
0.211758
0.220511
0.225677
0.227735
0.22705
0.224273
0.220229
0.215757
0.211996
0.209429
0.208782
0.209107
0.209575
0.208967
0.206677
0.202444
0.196249
0.188056
0.177926
0.166042
0.152356
0.137155
0.12086
0.104113
0.0875235
0.113376
0.121907
0.140613
0.162669
0.182045
0.196443
0.207014
0.214099
0.218091
0.219233
0.218185
0.215728
0.212716
0.210311
0.209028
0.209549
0.210793
0.211862
0.211584
0.209409
0.205192
0.199059
0.191079
0.181321
0.169905
0.156841
0.142423
0.127147
0.111021
0.0945508
0.106922
0.109279
0.123815
0.144512
0.164723
0.181228
0.193715
0.202457
0.207796
0.210464
0.210981
0.210015
0.208391
0.207277
0.207181
0.208729
0.210796
0.212419
0.212448
0.210467
0.206457
0.200534
0.192837
0.183524
0.172664
0.160292
0.146899
0.132439
0.116928
0.100705
0.107484
0.10168
0.110261
0.127639
0.147735
0.166122
0.180463
0.190737
0.197498
0.201292
0.203093
0.203442
0.203086
0.203153
0.204084
0.206511
0.209252
0.211398
0.211728
0.209995
0.206129
0.200414
0.193157
0.184542
0.174395
0.16283
0.150568
0.136833
0.12189
0.105966
0.114401
0.101859
0.102641
0.114537
0.132138
0.151309
0.167282
0.178957
0.18704
0.192157
0.194977
0.196364
0.197091
0.198157
0.199951
0.203093
0.206381
0.208969
0.209636
0.208206
0.204733
0.199394
0.192561
0.184487
0.175219
0.164763
0.15337
0.140366
0.125955
0.110338
0.128094
0.110079
0.102186
0.106907
0.120034
0.137603
0.154344
0.167256
0.17658
0.182915
0.186887
0.189126
0.190683
0.192537
0.195011
0.198689
0.20239
0.205337
0.206358
0.205295
0.202285
0.197545
0.191283
0.183849
0.175404
0.166139
0.155467
0.143123
0.129187
0.113857
0.148954
0.1273
0.111709
0.106518
0.113132
0.12637
0.14222
0.155877
0.166271
0.173713
0.178754
0.181957
0.184162
0.186552
0.189509
0.193539
0.197514
0.200739
0.202115
0.201467
0.198992
0.194912
0.18947
0.182801
0.175342
0.166921
0.156946
0.14519
0.13166
0.11657
0.176657
0.153001
0.131847
0.117071
0.113095
0.119869
0.132215
0.145398
0.156389
0.164728
0.170717
0.174812
0.177772
0.18048
0.183733
0.187933
0.192045
0.195466
0.197183
0.196983
0.195101
0.191775
0.187236
0.18165
0.175113
0.167331
0.157941
0.146674
0.133465
0.118543
0.210293
0.185635
0.161214
0.138872
0.124081
0.120387
0.126388
0.136896
0.147463
0.156248
0.162968
0.167844
0.171509
0.174689
0.178053
0.182247
0.186372
0.18991
0.191947
0.192241
0.190996
0.188574
0.185072
0.180504
0.174738
0.167516
0.158599
0.147705
0.134715
0.11988
0.248921
0.22371
0.197405
0.170164
0.146083
0.131038
0.126999
0.132039
0.140433
0.148777
0.155812
0.161269
0.165556
0.169213
0.172891
0.177033
0.181092
0.184677
0.187045
0.187919
0.187396
0.185787
0.183203
0.179537
0.174427
0.167672
0.15911
0.148451
0.135554
0.120716
0.291404
0.265835
0.238246
0.207945
0.17727
0.15184
0.136904
0.132781
0.136581
0.143138
0.149762
0.155457
0.160223
0.164373
0.168453
0.172785
0.176938
0.180582
0.183216
0.184563
0.18464
0.183737
0.181979
0.179003
0.174396
0.168076
0.15974
0.149152
0.136178
0.121203
0.336538
0.310695
0.282047
0.249621
0.214604
0.18123
0.155727
0.14126
0.137582
0.140453
0.145669
0.151075
0.156125
0.160771
0.165376
0.170071
0.174456
0.178222
0.181035
0.182724
0.183307
0.183009
0.181846
0.179518
0.17548
0.169382
0.160989
0.150191
0.136869
0.121499
0.383326
0.357258
0.327706
0.293649
0.255729
0.216918
0.182803
0.15817
0.145644
0.142612
0.144959
0.14946
0.154553
0.159728
0.165062
0.170376
0.17515
0.179097
0.182014
0.183894
0.184789
0.184897
0.184193
0.182287
0.178655
0.1727
0.163942
0.152337
0.138138
0.121926
0.431338
0.40525
0.375116
0.339971
0.300256
0.25808
0.217868
0.184672
0.163166
0.153106
0.151092
0.153697
0.158643
0.164542
0.171055
0.177417
0.182747
0.187012
0.189955
0.191718
0.192463
0.192406
0.191482
0.189396
0.185638
0.179497
0.170132
0.157321
0.141153
0.123188
0.482037
0.456553
0.426658
0.391503
0.35146
0.308088
0.264609
0.225538
0.19655
0.179512
0.172624
0.172699
0.177591
0.18491
0.19374
0.202034
0.208343
0.2128
0.215312
0.216046
0.21532
0.213487
0.210737
0.206956
0.201658
0.194049
0.183106
0.16798
0.148762
0.127151
0.541864
0.518505
0.490803
0.45806
0.420622
0.379569
0.337093
0.296848
0.264516
0.243308
0.233198
0.232272
0.23901
0.250381
0.264289
0.276508
0.284383
0.288361
0.288614
0.285406
0.279554
0.271934
0.2632
0.253579
0.242747
0.229919
0.213854
0.193343
0.167212
0.138485
0.630726
0.612745
0.591259
0.565631
0.53634
0.50417
0.470334
0.437724
0.410716
0.393024
0.386069
0.39012
0.404047
0.424337
0.44706
0.465209
0.474958
0.477378
0.472336
0.460752
0.444025
0.423911
0.40176
0.37832
0.353612
0.327028
0.297204
0.26228
0.220282
0.173796
0.797204
0.788269
0.777302
0.763798
0.749127
0.733776
0.717895
0.701726
0.688365
0.681725
0.684529
0.698595
0.72181
0.75047
0.778875
0.799846
0.810111
0.810893
0.801016
0.78212
0.755542
0.723417
0.687327
0.647943
0.605147
0.558502
0.506601
0.446461
0.374933
0.295472
1.04187
1.03983
1.04491
1.05117
1.05855
1.06374
1.06339
1.05986
1.05476
1.0543
1.0618
1.07683
1.09614
1.11735
1.13414
1.14392
1.1469
1.14319
1.13198
1.11462
1.09212
1.06571
1.036
1.00234
0.963216
0.917464
0.862899
0.795669
0.712218
0.616881
1.14885
1.15276
1.17412
1.19643
1.2103
1.21413
1.20992
1.20289
1.19677
1.19741
1.20269
1.209
1.21247
1.21412
1.20776
1.19704
1.18779
1.17748
1.16669
1.15607
1.14678
1.13914
1.13292
1.12696
1.11914
1.10898
1.09427
1.07409
1.04863
1.01305
0.14642
0.167866
0.173571
0.175409
0.173838
0.169597
0.163452
0.156054
0.147843
0.139201
0.130326
0.121509
0.112817
0.104619
0.0970664
0.0905923
0.0854851
0.0828701
0.083302
0.0852483
0.0858057
0.0830333
0.0762431
0.0656873
0.0522978
0.0373589
0.0247187
0.0228383
0.0217308
0.0228698
0.232821
0.264999
0.27305
0.27043
0.261836
0.250011
0.236555
0.22244
0.208144
0.194025
0.180181
0.16684
0.153928
0.141879
0.130857
0.121365
0.113785
0.11049
0.112376
0.117459
0.12163
0.121797
0.115922
0.103806
0.0866378
0.0662763
0.0456062
0.0337823
0.0336992
0.0306473
0.280026
0.316468
0.329257
0.329154
0.321565
0.309583
0.295112
0.279342
0.262907
0.246307
0.229781
0.213683
0.198043
0.183464
0.170303
0.159138
0.150361
0.146569
0.148386
0.153594
0.157916
0.158113
0.151646
0.138024
0.118259
0.0940172
0.0682003
0.0466437
0.0405647
0.0399379
0.307448
0.342537
0.357586
0.360533
0.355358
0.345175
0.331762
0.316401
0.299819
0.282638
0.265223
0.248048
0.231283
0.215675
0.201794
0.19025
0.18136
0.177517
0.178929
0.183333
0.186775
0.186254
0.179187
0.164869
0.143992
0.117954
0.0893401
0.061782
0.046733
0.0418803
0.319241
0.349923
0.367186
0.373627
0.371676
0.364351
0.3531
0.339307
0.323706
0.307094
0.289924
0.272774
0.255955
0.24036
0.226727
0.215668
0.207341
0.203725
0.204595
0.207784
0.20991
0.208315
0.200632
0.186038
0.16497
0.138498
0.108791
0.0782298
0.0565111
0.0461757
0.318756
0.344098
0.362613
0.372578
0.374925
0.371173
0.362783
0.351404
0.337506
0.322304
0.306192
0.289875
0.273801
0.259005
0.246318
0.236364
0.229049
0.225828
0.226097
0.227915
0.228543
0.225693
0.217375
0.202736
0.182009
0.155954
0.126303
0.0946833
0.0689157
0.0539141
0.311887
0.33169
0.349585
0.361978
0.368115
0.368502
0.363892
0.3549
0.34308
0.330027
0.315589
0.30074
0.286028
0.272657
0.261433
0.253063
0.247077
0.244357
0.24402
0.244457
0.243519
0.239358
0.230394
0.215838
0.19576
0.170647
0.141806
0.11041
0.082541
0.0639608
0.299299
0.312337
0.329122
0.343637
0.353476
0.357845
0.357083
0.351628
0.343186
0.332012
0.319256
0.306401
0.293523
0.282037
0.272727
0.266289
0.261839
0.259689
0.258786
0.257904
0.255431
0.250001
0.240411
0.226007
0.206765
0.182904
0.155435
0.125025
0.096416
0.0751357
0.278301
0.28685
0.302931
0.31951
0.332881
0.341147
0.344215
0.342505
0.337139
0.328845
0.318874
0.307863
0.297023
0.287775
0.280709
0.276435
0.273634
0.272085
0.270699
0.26861
0.264723
0.258131
0.247994
0.233809
0.215512
0.193066
0.166985
0.138086
0.109742
0.0865623
0.251472
0.257049
0.272993
0.291669
0.308209
0.320103
0.326852
0.328782
0.326744
0.321502
0.314222
0.305722
0.297369
0.290417
0.285795
0.283816
0.282679
0.281746
0.279973
0.276842
0.271725
0.264149
0.253607
0.239752
0.22231
0.201126
0.17666
0.149571
0.121962
0.0976479
0.226319
0.228268
0.243016
0.262593
0.281518
0.296409
0.306523
0.311753
0.312976
0.310849
0.306415
0.30063
0.294793
0.290472
0.288334
0.288682
0.289141
0.288826
0.286782
0.282808
0.276698
0.268375
0.257648
0.244073
0.227353
0.20744
0.184723
0.159415
0.132879
0.108136
0.204771
0.201762
0.214245
0.23385
0.254423
0.271876
0.28475
0.29275
0.296873
0.297712
0.296128
0.293093
0.289909
0.28822
0.288598
0.291224
0.29317
0.293464
0.291268
0.286682
0.279852
0.271145
0.260256
0.246953
0.230983
0.212348
0.191535
0.16768
0.142266
0.117686
0.187917
0.178891
0.187948
0.206431
0.227793
0.247199
0.262437
0.273023
0.279576
0.282955
0.284019
0.283661
0.28313
0.28403
0.286811
0.291569
0.294924
0.295792
0.293567
0.288649
0.281409
0.272263
0.261415
0.2486
0.233482
0.21632
0.196978
0.174456
0.150122
0.125935
0.176681
0.16168
0.165829
0.181547
0.202467
0.22308
0.240254
0.253049
0.261889
0.267522
0.270812
0.272867
0.27483
0.278139
0.283202
0.289885
0.294511
0.295968
0.293759
0.288531
0.281055
0.271875
0.261275
0.249208
0.235106
0.219509
0.201237
0.179874
0.156523
0.132843
0.174835
0.15339
0.150391
0.161107
0.1797
0.200313
0.218789
0.233391
0.244206
0.251859
0.257208
0.261253
0.265404
0.270869
0.277996
0.286361
0.292131
0.2942
0.292197
0.287093
0.279668
0.270654
0.260523
0.249173
0.236438
0.221857
0.204474
0.184073
0.161573
0.138432
0.181456
0.156625
0.144812
0.14779
0.161491
0.180139
0.198783
0.2146
0.227018
0.236407
0.243564
0.249369
0.255285
0.26256
0.27145
0.281233
0.288014
0.290738
0.289078
0.284303
0.277321
0.26881
0.259421
0.249073
0.237454
0.223543
0.206844
0.187201
0.165399
0.142774
0.1972
0.169874
0.151227
0.144684
0.150691
0.164506
0.181418
0.1974
0.210838
0.221594
0.23027
0.237617
0.24496
0.253607
0.263897
0.27482
0.28248
0.285915
0.284759
0.280523
0.274253
0.26668
0.258387
0.249028
0.238049
0.224687
0.208485
0.1894
0.168137
0.145967
0.223919
0.194879
0.170849
0.154854
0.149828
0.15615
0.168519
0.182892
0.196359
0.207909
0.217739
0.226357
0.234924
0.244533
0.255815
0.267599
0.27602
0.280225
0.279752
0.276325
0.271106
0.264886
0.257635
0.24892
0.238407
0.225431
0.209554
0.190826
0.169933
0.148129
0.26091
0.230474
0.202578
0.178742
0.162789
0.157593
0.16254
0.17269
0.184575
0.196015
0.206478
0.216038
0.225622
0.236088
0.247935
0.26032
0.269425
0.274454
0.274922
0.272717
0.268792
0.263651
0.257128
0.248886
0.238728
0.225975
0.210239
0.191668
0.170963
0.149414
0.306137
0.274448
0.24365
0.214033
0.188604
0.171693
0.165579
0.168703
0.176886
0.186861
0.197213
0.207277
0.217747
0.229077
0.241568
0.254229
0.264058
0.26998
0.271693
0.27057
0.267636
0.263228
0.25728
0.249478
0.239463
0.226672
0.210814
0.192166
0.171451
0.150011
0.357454
0.324449
0.291173
0.257269
0.224681
0.197414
0.179779
0.172986
0.174886
0.181836
0.191086
0.201167
0.21236
0.224638
0.237966
0.251208
0.261781
0.26847
0.271165
0.271065
0.268964
0.265245
0.259795
0.252124
0.241632
0.228217
0.211783
0.192708
0.171703
0.15017
0.412962
0.378567
0.343021
0.305756
0.267994
0.232811
0.204867
0.187569
0.181129
0.182798
0.189869
0.19954
0.211312
0.224567
0.239439
0.253771
0.265228
0.272559
0.276073
0.276701
0.275045
0.271437
0.265882
0.257956
0.246864
0.232135
0.214207
0.193997
0.172176
0.150166
0.471542
0.435885
0.398428
0.358605
0.317272
0.276681
0.240907
0.214198
0.198968
0.19423
0.197539
0.206177
0.218716
0.233747
0.250949
0.267178
0.279697
0.287766
0.291787
0.292548
0.290428
0.28585
0.279027
0.269708
0.257238
0.24085
0.220662
0.197745
0.17394
0.150615
0.533826
0.497532
0.459052
0.417897
0.374751
0.331312
0.290828
0.257372
0.234639
0.223662
0.2227
0.230184
0.244066
0.262215
0.283822
0.30331
0.317383
0.326123
0.329936
0.329432
0.324943
0.317232
0.306875
0.293956
0.278054
0.258522
0.234909
0.208286
0.180042
0.153223
0.604241
0.568929
0.531366
0.491119
0.44878
0.405748
0.364553
0.328679
0.302208
0.287488
0.284122
0.29215
0.30965
0.333672
0.362797
0.387409
0.403648
0.412458
0.414372
0.409707
0.399317
0.38444
0.366321
0.345647
0.32234
0.295941
0.265857
0.23222
0.196601
0.163027
0.695499
0.66439
0.631197
0.595601
0.558162
0.520227
0.4839
0.4521
0.42858
0.416068
0.415472
0.428741
0.453888
0.487361
0.526252
0.556753
0.574663
0.582178
0.579598
0.567383
0.546966
0.520139
0.488962
0.454859
0.418242
0.378927
0.336137
0.289382
0.239078
0.191008
0.835978
0.813328
0.788778
0.762404
0.734795
0.707591
0.682427
0.661607
0.647917
0.643757
0.651835
0.673993
0.708466
0.750911
0.796344
0.828648
0.845199
0.849425
0.841048
0.821223
0.791442
0.753645
0.70971
0.661325
0.609039
0.552721
0.491663
0.423982
0.349148
0.273722
1.0575
1.04711
1.03554
1.02197
1.00736
0.993453
0.981072
0.971737
0.967513
0.971334
0.986168
1.01312
1.0502
1.09142
1.12933
1.14951
1.15652
1.1533
1.14031
1.1188
1.09007
1.05518
1.01452
0.967823
0.913958
0.851503
0.780017
0.696094
0.597413
0.491518
1.30357
1.30036
1.30718
1.31514
1.31786
1.31455
1.30734
1.29963
1.29501
1.29736
1.30854
1.32724
1.34993
1.36842
1.37413
1.36068
1.34612
1.32892
1.31207
1.2949
1.27924
1.26517
1.25189
1.23621
1.21457
1.18354
1.13622
1.07266
0.989249
0.891522
1.345
1.35529
1.37736
1.39894
1.41186
1.41438
1.40693
1.39606
1.38757
1.38579
1.38875
1.39258
1.39308
1.3855
1.36432
1.32828
1.29963
1.27362
1.25421
1.24062
1.23455
1.23519
1.24198
1.25122
1.2593
1.26334
1.26072
1.25121
1.23226
1.20495
0.180846
0.205565
0.210618
0.210746
0.208132
0.202865
0.195526
0.186775
0.177071
0.166836
0.156248
0.145643
0.135035
0.124927
0.115507
0.107498
0.101724
0.101506
0.108034
0.116363
0.120086
0.116936
0.107159
0.0919248
0.0724447
0.0503419
0.0282423
0.0224078
0.0215766
0.0233051
0.291201
0.328249
0.334984
0.331831
0.322082
0.308506
0.292968
0.276525
0.25968
0.242766
0.225789
0.208992
0.1922
0.176128
0.161091
0.148168
0.139096
0.140381
0.152952
0.169493
0.180475
0.18166
0.17194
0.152515
0.125241
0.0925154
0.0593433
0.0364923
0.0304292
0.0306908
0.354276
0.394905
0.40769
0.407677
0.399153
0.385461
0.368722
0.350175
0.330521
0.310264
0.289606
0.268902
0.248174
0.228383
0.210215
0.194843
0.184378
0.18586
0.199372
0.217063
0.229064
0.230867
0.220646
0.199239
0.168358
0.129927
0.0891405
0.053215
0.0394272
0.0399333
0.394853
0.431791
0.44823
0.451467
0.445596
0.433798
0.417995
0.39948
0.379149
0.357646
0.335377
0.312785
0.29016
0.268633
0.249276
0.233226
0.222655
0.224161
0.236882
0.253276
0.264246
0.265588
0.255098
0.233334
0.201467
0.160963
0.116355
0.0721105
0.0481774
0.0427665
0.418806
0.450316
0.46781
0.474023
0.471671
0.462882
0.449172
0.43188
0.41214
0.390704
0.368157
0.345031
0.321866
0.299971
0.280698
0.265118
0.25523
0.256722
0.267847
0.281778
0.290689
0.2909
0.280114
0.258625
0.22717
0.186762
0.14099
0.092603
0.0601263
0.047879
0.428438
0.450644
0.468818
0.47982
0.482078
0.477073
0.46628
0.451062
0.432916
0.412571
0.390771
0.368168
0.345528
0.324349
0.306108
0.291862
0.283206
0.284652
0.293796
0.304706
0.311034
0.309611
0.298395
0.277425
0.247125
0.208131
0.163087
0.113497
0.0750326
0.056322
0.426153
0.442623
0.460169
0.473389
0.479747
0.479149
0.471724
0.459158
0.443547
0.425143
0.404959
0.383772
0.362542
0.342981
0.326575
0.314354
0.307342
0.308703
0.315668
0.323341
0.326839
0.323486
0.311698
0.291308
0.262534
0.225775
0.182193
0.133286
0.0917184
0.0674757
0.416823
0.426332
0.441864
0.45683
0.466963
0.470654
0.4677
0.459453
0.44623
0.429776
0.411938
0.392952
0.373912
0.356696
0.34287
0.333222
0.328098
0.329298
0.334033
0.338477
0.339085
0.333701
0.321251
0.301438
0.274457
0.239742
0.19832
0.151457
0.108763
0.0802201
0.398322
0.401529
0.415427
0.431977
0.445626
0.453482
0.455117
0.450791
0.441372
0.428631
0.413491
0.396655
0.380449
0.366217
0.355583
0.348913
0.345747
0.346693
0.349252
0.35066
0.348398
0.341078
0.327965
0.308727
0.282927
0.250504
0.211851
0.167927
0.125307
0.0935792
0.373065
0.370061
0.382656
0.400795
0.417633
0.429536
0.435547
0.435543
0.43022
0.421109
0.409482
0.396387
0.382952
0.372173
0.365185
0.361749
0.360457
0.361059
0.361582
0.360178
0.355269
0.346233
0.33265
0.313532
0.288934
0.258799
0.22334
0.18214
0.140704
0.106884
0.343484
0.335761
0.346807
0.365643
0.385102
0.400658
0.410877
0.414968
0.413957
0.408824
0.401125
0.391693
0.381968
0.375089
0.372053
0.371961
0.372321
0.372537
0.371177
0.367244
0.360084
0.349726
0.335478
0.316611
0.293222
0.265547
0.23269
0.193972
0.154194
0.119686
0.315299
0.301746
0.31043
0.329114
0.350366
0.368975
0.382881
0.39075
0.393799
0.392777
0.389166
0.383767
0.378153
0.375421
0.376486
0.379691
0.381405
0.381206
0.378158
0.372093
0.363214
0.351759
0.337036
0.318569
0.2965
0.270892
0.239857
0.203455
0.165511
0.131139
0.290003
0.270065
0.275494
0.292998
0.3151
0.336022
0.352947
0.364499
0.371246
0.373997
0.374439
0.37318
0.371924
0.373551
0.378714
0.384998
0.387806
0.387162
0.382693
0.375015
0.364939
0.352578
0.337748
0.31989
0.299349
0.274817
0.245156
0.210756
0.174647
0.14095
0.26835
0.243046
0.244202
0.259179
0.280883
0.303172
0.32246
0.337207
0.347344
0.353715
0.357811
0.36051
0.363701
0.369739
0.378942
0.387948
0.391652
0.390556
0.385078
0.376295
0.365159
0.35253
0.338002
0.321276
0.301715
0.277553
0.248853
0.2161
0.181707
0.149002
0.254043
0.224175
0.219205
0.230015
0.249582
0.271889
0.292679
0.309868
0.323049
0.332702
0.340191
0.346474
0.353923
0.364371
0.377387
0.388703
0.39312
0.391675
0.385412
0.375972
0.364729
0.352316
0.338529
0.322794
0.303307
0.279325
0.251229
0.219743
0.186869
0.155298
0.250449
0.217691
0.204119
0.208579
0.223625
0.243993
0.264968
0.283653
0.299193
0.311727
0.322249
0.331791
0.343137
0.357815
0.374305
0.387518
0.392525
0.390964
0.384517
0.375083
0.364192
0.352504
0.339604
0.324075
0.304354
0.280305
0.252505
0.221935
0.19035
0.159939
0.25729
0.223736
0.203622
0.198306
0.205987
0.221798
0.240997
0.259874
0.276844
0.291587
0.304766
0.317298
0.331988
0.350519
0.370073
0.384823
0.390412
0.389053
0.383055
0.374238
0.364308
0.353565
0.340972
0.325057
0.304956
0.280611
0.252826
0.222916
0.192375
0.163066
0.275198
0.241034
0.215739
0.201639
0.199675
0.208027
0.222885
0.240034
0.257174
0.27324
0.288541
0.303666
0.32151
0.343092
0.365301
0.381339
0.387639
0.387022
0.382175
0.374836
0.365861
0.355014
0.342375
0.325932
0.305262
0.280508
0.252595
0.222921
0.193189
0.164874
0.306386
0.271251
0.241697
0.219498