/*--------------------------------*- C++ -*----------------------------------*\
| =========                 |                                                 |
| \\      /  F ield         | OpenFOAM: The Open Source CFD Toolbox           |
|  \\    /   O peration     | Version:  5.0                                   |
|   \\  /    A nd           | Web:      www.OpenFOAM.org                      |
|    \\/     M anipulation  |                                                 |
\*---------------------------------------------------------------------------*/
FoamFile
{
    version     2.0;
    format      ascii;
    class       volScalarField;
    location    "1750/air";
    object      nut;
}
// * * * * * * * * * * * * * * * * * * * * * * * * * * * * * * * * * * * * * //

dimensions      [0 2 -1 0 0 0 0];

internalField   nonuniform List<scalar> 
243000
(
0.000144718
0.000147219
0.000144259
0.00013974
0.000134212
0.000128185
0.00012194
0.0001157
0.000109624
0.000103866
9.8502e-05
9.35801e-05
8.90729e-05
8.50157e-05
8.14098e-05
7.8339e-05
7.58818e-05
0.000338705
7.39648e-05
7.49764e-05
7.46942e-05
7.44524e-05
7.41537e-05
7.27381e-05
7.31998e-05
7.11042e-05
6.87442e-05
0.000297162
0.000272202
7.24178e-05
0.000630179
0.000666882
0.000674615
0.000673046
0.000665605
0.000654107
0.000639762
0.000623514
0.000605946
0.000587604
0.000568765
0.00054971
0.00053048
0.000511576
0.000493358
0.000476426
0.000461259
0.00045082
0.000441434
0.00043208
0.000431327
0.00042607
0.000417316
0.000405012
0.000382986
0.000362076
0.000337507
0.000309348
0.000281093
0.00029472
0.000679462
0.000716406
0.000726652
0.000725962
0.000718637
0.000706832
0.000691919
0.000674878
0.000656353
0.000636974
0.000617039
0.000596892
0.000576656
0.000556935
0.000538163
0.000521
0.000505912
0.000494317
0.00048608
0.000480631
0.000476778
0.000471524
0.000462804
0.000449143
0.000430197
0.000406422
0.00037802
0.000343779
0.000311156
0.000303642
0.00070134
0.000739608
0.000752793
0.000754713
0.000749344
0.000739043
0.000725215
0.000708872
0.000690718
0.000671443
0.000651436
0.000631147
0.000610776
0.000591023
0.000572405
0.000555659
0.000541235
0.000530304
0.000522694
0.00051764
0.000513338
0.000507713
0.000498679
0.000484786
0.000465634
0.000441161
0.000411543
0.000375412
0.000340706
0.000318189
0.000705087
0.000743307
0.000761705
0.000767585
0.000765256
0.000757455
0.000745609
0.000730803
0.000713799
0.000695356
0.000675952
0.00065614
0.000636212
0.000616962
0.000598965
0.00058304
0.000569609
0.000559663
0.000552725
0.000547795
0.000543135
0.000536993
0.000527535
0.000513439
0.00049422
0.000469697
0.000439972
0.000403436
0.000367859
0.000340297
0.000696926
0.00073558
0.000758521
0.000769049
0.000770592
0.000765863
0.000756572
0.000743819
0.00072847
0.000711354
0.000693009
0.000674098
0.000655008
0.000636636
0.00061955
0.000604711
0.000592455
0.000583584
0.000577317
0.000572491
0.000567489
0.00056081
0.000550912
0.000536641
0.000517508
0.000493255
0.000463925
0.000428009
0.000392047
0.000362033
0.000678956
0.000719931
0.000747306
0.00076234
0.000768043
0.000766938
0.000760412
0.000749922
0.000736609
0.000721183
0.000704233
0.000686531
0.000668553
0.000651309
0.000635342
0.00062175
0.000610762
0.000602973
0.000597354
0.000592643
0.000587343
0.000580177
0.000569878
0.000555469
0.000536503
0.000512681
0.000483972
0.000449033
0.000413163
0.00038074
0.000652809
0.000697693
0.000729575
0.000749282
0.000759351
0.000762005
0.000758762
0.000750988
0.000739668
0.000726063
0.000710772
0.000694513
0.000677853
0.000661881
0.000647188
0.000634935
0.000625254
0.000618517
0.000613513
0.00060894
0.000603411
0.000595844
0.00058521
0.00057071
0.000551952
0.000528639
0.000500655
0.000466871
0.000431494
0.000397506
0.000620613
0.000670315
0.000706884
0.000731291
0.000745826
0.000752328
0.000752503
0.000747637
0.000738926
0.000727317
0.000713532
0.000698862
0.000683655
0.000669066
0.000655734
0.000644858
0.00063648
0.000630741
0.000626324
0.000621915
0.000616239
0.000608375
0.000597496
0.000582964
0.000564448
0.000541674
0.000514521
0.000481639
0.000447037
0.00041257
0.000588719
0.000641106
0.000681173
0.000709738
0.000728562
0.000738956
0.000742608
0.000740824
0.000734721
0.000725332
0.0007136
0.000700351
0.000686571
0.000673422
0.00066149
0.000651988
0.00064487
0.000640065
0.000636202
0.000631991
0.000626252
0.000618204
0.000607182
0.000592691
0.000574459
0.000552302
0.000525728
0.000493682
0.000460181
0.0004258
0.00055874
0.000611295
0.00065479
0.000686859
0.000708778
0.000722813
0.000729875
0.000731206
0.000727814
0.000720739
0.000710933
0.00069947
0.000687206
0.000675402
0.000664868
0.000656702
0.000650771
0.000646827
0.00064349
0.000639508
0.000633795
0.000625675
0.000614622
0.000600259
0.000582411
0.0005607
0.000534661
0.000503584
0.000471303
0.000437323
0.00053408
0.000581278
0.000627269
0.000663085
0.000688503
0.000705282
0.00071512
0.000719364
0.000718704
0.000713989
0.000706212
0.000696473
0.000685767
0.000675456
0.000666219
0.000659311
0.000654474
0.000651315
0.000648472
0.000644751
0.000639146
0.000631074
0.000620103
0.000605994
0.000588471
0.000567169
0.000541628
0.000511973
0.000480815
0.000447378
0.000519879
0.000553001
0.000598632
0.000637951
0.000667233
0.000687228
0.000699628
0.000706003
0.000707852
0.000705483
0.000699757
0.000691802
0.000682644
0.000673739
0.000665806
0.000660071
0.000656231
0.000653783
0.000651396
0.000647961
0.000642542
0.00063464
0.000623904
0.000610037
0.000592841
0.000571933
0.000546871
0.000518849
0.000488866
0.000456069
0.000521521
0.000531241
0.000570116
0.00061136
0.000644576
0.000668247
0.000683621
0.000692328
0.000695942
0.000695643
0.0006919
0.000685725
0.000678111
0.000670569
0.000663867
0.000659207
0.000656229
0.000654436
0.000652477
0.000649361
0.000644222
0.000636552
0.000626047
0.000612494
0.000595677
0.000575174
0.000550767
0.000524364
0.000495579
0.000463491
0.000541231
0.000523717
0.0005456
0.000584216
0.000620438
0.000648017
0.000666795
0.000678179
0.000683829
0.000685091
0.000683006
0.000678505
0.000672404
0.000666166
0.000660612
0.000656921
0.000654715
0.000653481
0.000651919
0.000649085
0.000644166
0.000636772
0.000626596
0.000613434
0.000597082
0.000577049
0.000553925
0.000528832
0.000501134
0.000469751
0.000574977
0.000537982
0.000532782
0.000559619
0.000595514
0.000626454
0.000648898
0.000663331
0.000671321
0.000674353
0.000673629
0.000670452
0.000665737
0.000660732
0.000656231
0.000653403
0.000651868
0.000651117
0.000649924
0.000647414
0.000642845
0.000635728
0.000625875
0.000613076
0.000597132
0.000577683
0.000556131
0.000532312
0.000505633
0.000474937
0.000616233
0.000572732
0.000541577
0.000544554
0.000572389
0.000604144
0.00062989
0.000647613
0.000658252
0.000663293
0.00066411
0.000662016
0.000658368
0.00065446
0.000650906
0.000648834
0.000647865
0.00064753
0.000646685
0.000644507
0.000640303
0.000633619
0.00062413
0.000611732
0.000596226
0.00057788
0.000557597
0.000534919
0.000509173
0.000479121
0.000660964
0.000618661
0.000574144
0.00054866
0.000557003
0.000583196
0.000610282
0.000631032
0.000644513
0.000651802
0.000654327
0.000653497
0.000650688
0.000647574
0.000644818
0.000643389
0.000642886
0.000642906
0.000642387
0.000640546
0.000636726
0.000630496
0.000621492
0.000609549
0.000594625
0.000577543
0.000558405
0.000536747
0.000511836
0.000482371
0.000702686
0.000664987
0.000619696
0.000576191
0.000556957
0.000568089
0.000591698
0.000614019
0.00063014
0.000639814
0.000644207
0.000644794
0.000642975
0.000640383
0.000638184
0.000637252
0.000637117
0.000637435
0.000637217
0.000635718
0.0006323
0.000626538
0.0006181
0.000606698
0.000592812
0.000576807
0.000558646
0.00053789
0.00051371
0.000484765
0.00074292
0.000709281
0.000667777
0.000619321
0.000578391
0.000565272
0.000577526
0.000597801
0.000615486
0.000627381
0.000633725
0.000635832
0.000635145
0.000633233
0.000631341
0.000630655
0.000630769
0.000631317
0.00063137
0.000630212
0.000627208
0.000621935
0.000614098
0.000603595
0.000590771
0.000575748
0.000558446
0.000538462
0.000514899
0.000486387
0.00078161
0.000751107
0.000713655
0.000667162
0.000616456
0.000580181
0.000572581
0.000584796
0.000601445
0.000614779
0.000622936
0.000626604
0.000627143
0.000626049
0.000624605
0.000623965
0.000624104
0.000624784
0.000625062
0.000624228
0.000621647
0.000616896
0.000609907
0.000600419
0.000588578
0.000574461
0.000557939
0.000538585
0.000515521
0.00048735
0.000818566
0.000790408
0.000756152
0.000713255
0.000661491
0.000610976
0.0005813
0.000578378
0.000589678
0.000602656
0.000612063
0.00061718
0.000618962
0.0006188
0.000617933
0.00061749
0.000617663
0.000618315
0.00061872
0.000618177
0.000616086
0.000612016
0.000605827
0.000597274
0.000586359
0.000573086
0.000557269
0.000538444
0.000515731
0.000487768
0.000854221
0.000827526
0.000795428
0.000755639
0.000706241
0.000650567
0.00060378
0.000581883
0.000582484
0.000592149
0.000601595
0.000607767
0.00061071
0.000611518
0.000611345
0.000611238
0.000611544
0.000612228
0.000612753
0.000612473
0.000610828
0.00060739
0.000601965
0.000594295
0.000584279
0.000571822
0.000556657
0.000538259
0.000515733
0.000487797
0.000887341
0.00086174
0.000831263
0.000793958
0.000747572
0.000692012
0.000635825
0.000596411
0.000582282
0.000584913
0.000592433
0.000598847
0.000602682
0.000604426
0.00060502
0.000605383
0.000605929
0.000606713
0.000607368
0.000607328
0.00060609
0.000603236
0.000598532
0.000591716
0.00058257
0.000570918
0.000556366
0.000538326
0.000515826
0.00048774
0.000917641
0.000893016
0.000863904
0.000828604
0.000785053
0.000731828
0.000672546
0.000620705
0.000590972
0.000583085
0.000586183
0.000591542
0.000595745
0.000598294
0.000599714
0.000600692
0.000601603
0.000602565
0.000603352
0.000603513
0.000602609
0.000600255
0.000596176
0.000590086
0.000581703
0.00057078
0.000556872
0.000539188
0.000516588
0.000488091
0.000946165
0.000922462
0.000894611
0.000861153
0.000820281
0.000770205
0.000711748
0.000653468
0.00061054
0.000590292
0.000586227
0.0005889
0.000592787
0.000596012
0.000598418
0.000600248
0.000601692
0.000602893
0.000603738
0.000603933
0.00060312
0.000600974
0.000597233
0.00059163
0.000583836
0.000573522
0.000560085
0.000542533
0.000519382
0.000489957
0.000975719
0.000953301
0.000927012
0.000895646
0.000857731
0.000811635
0.000756838
0.000697963
0.00064709
0.000615485
0.000602848
0.000601331
0.000604341
0.00060843
0.000612333
0.000615453
0.000617607
0.000618931
0.000619425
0.00061898
0.000617423
0.000614604
0.000610351
0.000604437
0.000596511
0.000586127
0.00057255
0.000554417
0.000529898
0.000498181
0.00101349
0.000993208
0.00096951
0.000941679
0.000908828
0.000869729
0.00082342
0.000771767
0.000722486
0.000686649
0.000668527
0.000663983
0.000666857
0.000672731
0.000678852
0.000683444
0.000685843
0.000686311
0.000684951
0.000681976
0.000677528
0.000671812
0.000664874
0.000656564
0.000646392
0.00063384
0.000618162
0.000597626
0.000569522
0.000532261
0.00108716
0.00107175
0.00105507
0.00103697
0.00101696
0.00099402
0.000966895
0.000935901
0.000903991
0.000879171
0.000866111
0.000863678
0.000867838
0.000875384
0.000882426
0.000886784
0.00088758
0.00088554
0.000880968
0.000874211
0.000865722
0.000855986
0.000845314
0.000833544
0.000819321
0.000802447
0.00078349
0.000759963
0.000729042
0.000689095
0.00132876
0.00132594
0.00132651
0.00132682
0.00132598
0.00132327
0.00131786
0.00131016
0.00129817
0.00128761
0.00128076
0.00127756
0.00127698
0.00127996
0.00128277
0.00128446
0.00128375
0.00128285
0.00128152
0.00128031
0.00127902
0.00127802
0.00127717
0.00127609
0.00127025
0.00126096
0.00125293
0.00124053
0.00122366
0.00120127
0.000175413
0.000181589
0.000179224
0.000174162
0.000167574
0.000160181
0.000152461
0.000144756
0.000137264
0.000130146
0.00012346
0.00011729
0.000111641
0.000106632
0.00010229
9.87758e-05
9.61841e-05
9.47986e-05
9.47223e-05
9.55425e-05
9.65757e-05
9.67279e-05
9.52951e-05
9.17738e-05
8.58969e-05
7.77289e-05
0.000325011
0.000303735
0.000310265
7.73544e-05
0.000678128
0.000764352
0.000739256
0.00068761
0.000630335
0.000576278
0.000528082
0.00048579
0.000448803
0.000416738
0.000388642
0.000364241
0.00034235
0.000323414
0.000306725
0.000292616
0.000279992
0.000271007
0.000265834
0.000265392
0.000268832
0.000273824
0.000275478
0.00026944
0.000255519
0.000233142
0.00023541
0.000275919
0.000333491
0.000309533
0.0010752
0.00124133
0.00125014
0.00119735
0.00112274
0.00104384
0.000968993
0.000900544
0.000838955
0.000784481
0.000735993
0.000693394
0.000654846
0.000621352
0.000592071
0.000566904
0.000543338
0.000524512
0.000509339
0.000499889
0.000497028
0.000498355
0.000496127
0.000484134
0.00045814
0.00041787
0.000374487
0.000346762
0.000376699
0.000412756
0.00133134
0.00155371
0.00159797
0.00156568
0.00149851
0.00141735
0.00133419
0.00125439
0.00118003
0.00111245
0.0010511
0.000996495
0.000947018
0.000903879
0.000866784
0.000835078
0.000804987
0.000779157
0.000754864
0.000735381
0.000722724
0.000716105
0.000707008
0.000686441
0.000649442
0.000594666
0.000527145
0.000455543
0.000429001
0.000441573
0.00145984
0.00169673
0.00179299
0.00180469
0.00176077
0.00169158
0.00161226
0.00153231
0.00145453
0.00138193
0.00131467
0.00125418
0.00119913
0.00115137
0.00111127
0.00107738
0.00104469
0.00101463
0.000983345
0.00095483
0.000932462
0.000916943
0.000899775
0.000871138
0.000825648
0.000760851
0.000679343
0.000582734
0.000511641
0.000484745
0.00153396
0.00177128
0.00190114
0.00194469
0.0019309
0.00188095
0.00181226
0.0017407
0.0016661
0.00159505
0.00152756
0.00146621
0.00141037
0.00136237
0.00132308
0.00129046
0.0012581
0.00122583
0.0011894
0.00115342
0.0011224
0.00109836
0.00107323
0.001038
0.000986376
0.000915097
0.000825805
0.000716517
0.000616757
0.000555408
0.00156297
0.00179255
0.00193824
0.00200975
0.0020252
0.00200178
0.0019557
0.00189062
0.00182133
0.00175788
0.00169463
0.00163665
0.00158393
0.00153943
0.00150375
0.00147512
0.00144519
0.00141218
0.00137218
0.00133031
0.00129203
0.00125992
0.00122814
0.00118781
0.00113216
0.00105734
0.000963837
0.000848762
0.000732515
0.000643452
0.00154977
0.00175664
0.00191507
0.00201327
0.00205874
0.00206149
0.00203699
0.00199071
0.00193854
0.0018804
0.00182085
0.00177042
0.00172351
0.00168539
0.0016557
0.00163308
0.001607
0.00157458
0.0015323
0.00148605
0.00144188
0.00140381
0.0013664
0.00132175
0.00126369
0.00118755
0.00109289
0.000975761
0.00085093
0.000739768
0.00147044
0.0016658
0.00183946
0.0019649
0.00204142
0.00207136
0.00207058
0.00204756
0.00201117
0.0019661
0.00191974
0.00187337
0.00183311
0.00180314
0.00178145
0.00176619
0.00174516
0.00171426
0.00167084
0.00162176
0.00157446
0.00153183
0.00149025
0.0014423
0.00138231
0.00130629
0.00121287
0.00109733
0.000967607
0.000837955
0.00134473
0.0015273
0.00171919
0.00187205
0.00198135
0.00204034
0.00206654
0.00206705
0.00205034
0.00202057
0.00198575
0.00194878
0.00191728
0.0018956
0.0018834
0.00187629
0.00186117
0.00183254
0.00178902
0.00173862
0.00168865
0.00164289
0.00159846
0.00154945
0.00148932
0.00141493
0.00132353
0.00121148
0.00107902
0.000933377
0.00122217
0.00136609
0.00155615
0.00173955
0.00188634
0.00197522
0.00203058
0.0020559
0.00205976
0.00204719
0.00202559
0.00200041
0.00197827
0.00196701
0.00196385
0.00196539
0.00195629
0.00193041
0.00188819
0.00183792
0.00178672
0.00173835
0.00169272
0.00164392
0.00158659
0.00151285
0.0014229
0.0013157
0.0011809
0.00102244
0.00112234
0.00121009
0.00137722
0.00157221
0.00174847
0.00187942
0.0019673
0.00201862
0.00204363
0.00204907
0.00204234
0.00203013
0.00201917
0.00201793
0.00202448
0.00203491
0.00203184
0.00200953
0.00196964
0.00192077
0.00186969
0.00182104
0.00177535
0.00172725
0.00167068
0.00159912
0.00151153
0.00140734
0.00127143
0.00110666
0.00105312
0.00108021
0.00120642
0.0013918
0.00158419
0.00174894
0.00187403
0.00195879
0.00200534
0.0020295
0.00203867
0.00204047
0.00204162
0.00205114
0.00206731
0.00208608
0.00208953
0.00207169
0.00203446
0.00198795
0.00193916
0.00189131
0.0018445
0.00179712
0.00174194
0.00167367
0.00159128
0.00148695
0.00134973
0.00118014
0.00104045
0.000994103
0.00106543
0.00121934
0.00141043
0.0015971
0.00175276
0.00186937
0.00194714
0.00199139
0.00201728
0.00203363
0.00204762
0.00206841
0.00209341
0.00212028
0.00212996
0.00211795
0.00208404
0.00204033
0.00199137
0.00194254
0.00189643
0.00185252
0.00180059
0.00173627
0.00166048
0.00155486
0.00141575
0.00124214
0.00107467
0.000975694
0.000979232
0.00108051
0.00124681
0.00143819
0.00161426
0.001757
0.00186332
0.00193578
0.00198078
0.00201178
0.00203899
0.00207063
0.00210431
0.00213893
0.00215515
0.00214937
0.00212022
0.00207987
0.00203431
0.0019861
0.00193917
0.00189395
0.0018475
0.00179048
0.00171646
0.00161045
0.00146944
0.0012924
0.00116074
0.00101853
0.000955517
0.000995655
0.00111569
0.00128861
0.00147035
0.00163093
0.00176091
0.00185906
0.00192872
0.00197688
0.00201719
0.0020593
0.00210151
0.00214347
0.00216641
0.00216729
0.00214405
0.00210793
0.00206613
0.00202172
0.00197559
0.00193039
0.00188625
0.00183667
0.00176198
0.00165464
0.00151137
0.00133121
0.00130648
0.00113305
0.0010134
0.000974807
0.00103823
0.00116668
0.00133474
0.00150145
0.00164771
0.00176708
0.0018592
0.00192891
0.00198381
0.00203598
0.00208647
0.0021354
0.00216509
0.00217302
0.00215667
0.00212554
0.00208842
0.0020481
0.00200684
0.00196348
0.00192179
0.00187257
0.00179729
0.00168828
0.0015424
0.00135918
0.00150953
0.0013162
0.00115306
0.00104541
0.0010207
0.00109378
0.00122397
0.00138049
0.00153258
0.0016665
0.00177712
0.0018662
0.00193926
0.00200209
0.00206083
0.00211635
0.00215274
0.00216803
0.00215938
0.00213413
0.0021026
0.00206757
0.00203204
0.0019945
0.0019542
0.0019014
0.00182384
0.00171262
0.0015637
0.00137728
0.0017619
0.00155725
0.00136467
0.00120084
0.00109791
0.00108181
0.00115703
0.00128206
0.00142574
0.00156492
0.00168815
0.00179288
0.00188199
0.00195949
0.00202641
0.00208814
0.00213115
0.00215405
0.00215375
0.0021358
0.00211083
0.00208298
0.00205457
0.00202284
0.00198096
0.00192416
0.00184339
0.00172931
0.00157681
0.00138692
0.00205102
0.0018407
0.00162919
0.00142553
0.00125621
0.00115671
0.00114615
0.00122136
0.00133896
0.00147101
0.00159871
0.00171371
0.00181534
0.00190532
0.00198391
0.00205257
0.0021023
0.00213292
0.00214182
0.00213327
0.00211615
0.00209563
0.00207385
0.00204571
0.00200233
0.00194198
0.00185806
0.00174042
0.00158367
0.00138991
0.00235981
0.00214753
0.00192425
0.00169421
0.00147633
0.00130448
0.00121211
0.00120922
0.00128366
0.00139418
0.00151567
0.00163371
0.00174252
0.00184153
0.00192917
0.00200635
0.00206451
0.00210331
0.00212155
0.00212308
0.00211431
0.00210154
0.00208556
0.00205896
0.0020164
0.00195659
0.00187001
0.00174804
0.00158634
0.00138818
0.00266558
0.00245412
0.00222468
0.00197881
0.00172928
0.00150375
0.00133876
0.00125847
0.00126721
0.00134153
0.0014451
0.00155674
0.00166545
0.00176744
0.00185844
0.00193943
0.00200361
0.00204998
0.0020782
0.00209085
0.00209251
0.00208838
0.00207915
0.00205951
0.00202291
0.00196358
0.00187499
0.00175122
0.00158542
0.00138281
0.00293924
0.00273153
0.00250174
0.00224955
0.00198323
0.00172371
0.00150394
0.00135453
0.00129573
0.00131585
0.00138695
0.00148125
0.00157933
0.00167382
0.00175835
0.0018348
0.00189878
0.00194903
0.00198532
0.00200992
0.00202512
0.00203502
0.0020393
0.00203311
0.00200933
0.00195811
0.00187039
0.0017434
0.00157788
0.00137344
0.00314419
0.0029452
0.00272256
0.00247416
0.0022048
0.00192933
0.00167456
0.0014715
0.0013494
0.00131069
0.0013333
0.00139229
0.00146404
0.00153571
0.0016003
0.00166089
0.00171458
0.00176354
0.00180612
0.0018431
0.00187549
0.00190489
0.00192923
0.00194429
0.00194267
0.00191379
0.00184321
0.00172479
0.00155806
0.00135652
0.00323916
0.00305704
0.00285143
0.0026182
0.00235905
0.00208363
0.00181224
0.00157306
0.00139791
0.00129908
0.00126487
0.00127166
0.00130121
0.00133747
0.00137581
0.0014156
0.00145532
0.00149705
0.00153987
0.00158434
0.00162967
0.00167555
0.00172037
0.00175994
0.00178694
0.00179056
0.0017559
0.00166619
0.00152119
0.0013284
0.00319215
0.00303903
0.00286255
0.00265699
0.00242146
0.00216199
0.00189432
0.00164335
0.00143906
0.00129789
0.00121695
0.00117942
0.00117546
0.00119006
0.00121668
0.00124755
0.00127738
0.00130759
0.00134039
0.00137438
0.00141059
0.00145006
0.00149254
0.00153562
0.00157381
0.00159789
0.00159395
0.00154501
0.00143189
0.00127299
0.00301837
0.00290903
0.00277676
0.00261486
0.00242125
0.00220154
0.00197007
0.00174946
0.00156345
0.00142635
0.00133709
0.0012915
0.00128302
0.00129825
0.00132798
0.00135893
0.00138296
0.00140336
0.00142071
0.00143489
0.00144762
0.00146086
0.00147553
0.001491
0.00150432
0.00150947
0.00149549
0.00144746
0.00134701
0.00119162
0.00285281
0.00279638
0.00271749
0.00261076
0.00247474
0.00231698
0.00215066
0.00199135
0.00185415
0.00174747
0.00167533
0.00164046
0.00163545
0.00165105
0.00167806
0.00170514
0.00172449
0.00174079
0.00175161
0.00175836
0.00176184
0.00176332
0.00176291
0.00175931
0.00174968
0.00172951
0.00168941
0.00161459
0.00148722
0.00129916
0.0027728
0.00275263
0.00272621
0.00267871
0.00260726
0.00251653
0.00241264
0.00230849
0.00221306
0.00213321
0.00207657
0.0020445
0.00203276
0.0020368
0.002049
0.00206449
0.00207714
0.00209065
0.00210246
0.0021142
0.00212597
0.00213767
0.00214822
0.00215521
0.00215536
0.00214548
0.00211712
0.00205744
0.00195452
0.00180342
0.00276422
0.00276341
0.00276197
0.00274357
0.00270641
0.0026589
0.00260067
0.00253785
0.00247527
0.00242254
0.00237867
0.00234683
0.00232674
0.00231814
0.00231607
0.00232153
0.00232936
0.00234143
0.00235695
0.00237687
0.00240046
0.00242652
0.00245308
0.002478
0.00249875
0.00251596
0.00252155
0.00250871
0.00248062
0.0024323
0.000201967
0.000208187
0.000203979
0.000197812
0.000190242
0.000181845
0.000173118
0.000164424
0.00015598
0.000147958
0.000140413
0.000133444
0.000127032
0.000121334
0.000116389
0.000112436
0.000109665
0.000108847
0.000110442
0.000113493
0.000116078
0.000116794
0.000114818
0.000109628
0.000100856
8.80835e-05
6.9991e-05
0.00031122
0.00032223
7.98058e-05
0.0008723
0.000999642
0.00100265
0.000947344
0.000875495
0.000804671
0.000740263
0.000683622
0.000633774
0.000590102
0.000550889
0.000515839
0.000482765
0.000452926
0.00042475
0.000399205
0.000375101
0.000360876
0.000358255
0.00036766
0.000383963
0.000400128
0.000405004
0.000390974
0.000357843
0.000310744
0.000256369
0.00028862
0.000309912
0.000322713
0.00139796
0.00164115
0.00169982
0.00166012
0.00157798
0.00148234
0.00138657
0.00129686
0.0012145
0.00114
0.00107151
0.00100912
0.000949666
0.000895484
0.000845026
0.000798134
0.000752105
0.000719796
0.000701471
0.000700995
0.000714543
0.000732862
0.000733688
0.000707287
0.000651257
0.000566395
0.000465479
0.000394767
0.000387476
0.000465787
0.00178481
0.00207563
0.0021738
0.00216531
0.00209702
0.00200327
0.00190029
0.0017979
0.00169982
0.00160835
0.00152255
0.0014433
0.00136779
0.00129865
0.00123528
0.00117613
0.00111675
0.00106942
0.00103487
0.00101999
0.00102245
0.00103413
0.00102993
0.000994537
0.000920818
0.000810646
0.000675998
0.000542253
0.000474675
0.000514323
0.00204215
0.00233712
0.00247592
0.00250501
0.00246074
0.0023817
0.00228489
0.00218311
0.00208091
0.00198314
0.00188974
0.0018027
0.00171941
0.00164358
0.00157548
0.00151163
0.00144443
0.00138449
0.00133488
0.00130439
0.0012952
0.00129809
0.00128799
0.00124624
0.00116335
0.00103912
0.000884012
0.000714482
0.000592131
0.000574022
0.00219923
0.00247831
0.00264376
0.00270974
0.00270228
0.00264558
0.00256226
0.00247062
0.00237164
0.00227593
0.00218234
0.00209441
0.00201044
0.00193484
0.00186803
0.00180438
0.00173286
0.00166203
0.00159861
0.00155412
0.00153321
0.00152699
0.00151212
0.0014665
0.00138051
0.00125094
0.00108595
0.00089655
0.00073588
0.000668539
0.00231511
0.00257188
0.00273878
0.00282592
0.00284688
0.00282057
0.00276171
0.00267761
0.00258465
0.00249893
0.00241081
0.00232755
0.00224869
0.0021792
0.00211789
0.00205829
0.00198434
0.00190399
0.00182814
0.0017716
0.00173987
0.0017247
0.00170529
0.00166035
0.00157471
0.00144601
0.0012792
0.00108159
0.000896148
0.000789251
0.00239037
0.00259763
0.00275929
0.00286404
0.00291265
0.00291487
0.00288217
0.00282077
0.00275139
0.00266916
0.00258377
0.0025104
0.00244058
0.00238174
0.00232994
0.00227687
0.00220174
0.00211332
0.00202687
0.00196016
0.0019186
0.00189527
0.00187165
0.00182838
0.00174834
0.00162496
0.00146393
0.00126613
0.00106539
0.000924968
0.00237632
0.00255323
0.00271225
0.00283527
0.00291193
0.00294367
0.00293912
0.00290404
0.00285253
0.00278782
0.00272075
0.00265252
0.00259219
0.00254747
0.00250822
0.00246303
0.00238785
0.00229298
0.00219836
0.00212301
0.0020734
0.0020424
0.00201532
0.00197414
0.00190336
0.00178902
0.0016334
0.00144124
0.00123538
0.00106446
0.00229224
0.00244544
0.00260552
0.00274946
0.00285493
0.00291776
0.00294252
0.00293593
0.00290685
0.00286218
0.00281105
0.00275764
0.00271298
0.00268082
0.00265602
0.00261947
0.00254498
0.00244613
0.00234535
0.0022639
0.0022077
0.00216999
0.00214041
0.00210222
0.0020386
0.00193362
0.00178745
0.00160504
0.00139872
0.00120448
0.00218609
0.00230502
0.00245674
0.00261502
0.00274973
0.00284543
0.00290182
0.00292365
0.00292044
0.00289818
0.00286605
0.00283092
0.00280178
0.00278702
0.00277598
0.0027486
0.00267545
0.00257396
0.00247081
0.002386
0.00232466
0.00228212
0.00225111
0.00221376
0.00215431
0.00206018
0.00192603
0.00175505
0.00155276
0.00134372
0.00208002
0.00214416
0.00227697
0.00244325
0.00260384
0.00273327
0.00282349
0.00287517
0.0028986
0.00290091
0.0028901
0.00287504
0.0028645
0.00286697
0.00287056
0.0028525
0.00278192
0.00268149
0.00257734
0.00249191
0.00242705
0.00238297
0.00234768
0.0023097
0.00225386
0.00216936
0.00205049
0.00188893
0.00169183
0.00147659
0.00198765
0.00197946
0.0020817
0.00224549
0.00242553
0.00258622
0.00271054
0.00279559
0.00284758
0.00287506
0.00288701
0.00289364
0.00290352
0.00292337
0.00294191
0.00293261
0.0028673
0.00276964
0.00266771
0.00258411
0.00251782
0.00246779
0.00242911
0.00239197
0.00234001
0.00226643
0.00215934
0.00200645
0.00181448
0.00159543
0.00191713
0.00183787
0.00189459
0.00203932
0.00222662
0.0024121
0.00256863
0.00268698
0.0027701
0.00282546
0.00286113
0.00288992
0.00292033
0.00295788
0.00299174
0.00299116
0.00293321
0.0028411
0.00274246
0.00265825
0.00259012
0.00253772
0.00249687
0.00246238
0.00241494
0.00235305
0.00225466
0.00210829
0.0019204
0.00169879
0.00191784
0.001759
0.00174805
0.00185042
0.00202534
0.00222267
0.00240515
0.00255462
0.00266886
0.00275312
0.00281538
0.00286655
0.00291757
0.0029727
0.00302132
0.00303028
0.00298242
0.00289847
0.00280611
0.00272625
0.00265797
0.00260335
0.00256161
0.00252575
0.00248525
0.00242807
0.0023352
0.00219441
0.00200952
0.00178586
0.00198075
0.00177747
0.00167852
0.00171245
0.00184809
0.00203592
0.0022314
0.00240575
0.00254874
0.00266157
0.00275075
0.00282601
0.00289726
0.00296952
0.00303214
0.00305187
0.00301657
0.00294358
0.00285895
0.00278448
0.00271999
0.00266593
0.00262492
0.00258817
0.00255053
0.00249335
0.00240269
0.00226624
0.00208247
0.00185655
0.00211736
0.00187859
0.00171352
0.00166185
0.00172949
0.00187735
0.00206434
0.00225099
0.00241642
0.0025551
0.0026702
0.00276937
0.002861
0.0029497
0.00302558
0.00305729
0.00303642
0.00297724
0.00290202
0.0028342
0.00277515
0.00272617
0.00268661
0.00264808
0.00260775
0.00254911
0.0024581
0.00232339
0.00213953
0.00191106
0.00234445
0.00208237
0.00186353
0.00172564
0.0016933
0.00177753
0.00192682
0.00210532
0.00228113
0.0024393
0.00257712
0.00269846
0.00280911
0.00291409
0.00300204
0.0030466
0.00304139
0.00299887
0.00293484
0.00287571
0.00282398
0.00278178
0.00274289
0.00270099
0.00265678
0.00259534
0.00250216
0.00236634
0.00218162
0.00195009
0.00264731
0.00237188
0.00211552
0.00190617
0.00177887
0.00175747
0.00184518
0.00198729
0.00215464
0.00232117
0.00247527
0.00261468
0.00274172
0.00286061
0.00295916
0.00301674
0.00302787
0.0030042
0.00295424
0.00290567
0.00286271
0.00282581
0.00278633
0.00274254
0.00269617
0.00263194
0.00253559
0.00239676
0.00220958
0.00197466
0.00299509
0.00271387
0.00243402
0.00217388
0.0019652
0.00184402
0.00183011
0.00191437
0.00204949
0.00220828
0.00236802
0.00251766
0.00265671
0.00278364
0.00288903
0.0029576
0.0029853
0.00298028
0.00294864
0.00291176
0.00287749
0.00284419
0.00281058
0.00277381
0.00272762
0.00266059
0.00255989
0.00241646
0.00222495
0.00198637
0.00335033
0.00306803
0.0027752
0.00248316
0.00221629
0.00200978
0.00189802
0.00189216
0.00197309
0.00210672
0.002256
0.0024036
0.0025444
0.00267359
0.00277516
0.00284908
0.00289131
0.00290482
0.00289277
0.00287296
0.00285166
0.00283125
0.00280914
0.00277895
0.00273585
0.00267243
0.0025724
0.00242686
0.00223077
0.00198754
0.00367183
0.00339236
0.00309519
0.00278689
0.00248477
0.00221753
0.00202174
0.00192516
0.00192809
0.00200488
0.00212864
0.00225957
0.00238597
0.00249768
0.00259136
0.00266413
0.0027185
0.00274621
0.00275565
0.00275707
0.00275597
0.00275446
0.00275058
0.00273768
0.00270444
0.00264031
0.00254499
0.00241007
0.00221804
0.00197553
0.00391744
0.00364597
0.00335323
0.00304232
0.00272478
0.00242176
0.00216492
0.00198717
0.00190608
0.00190906
0.00197499
0.00206525
0.00216131
0.00224957
0.00232189
0.00238863
0.00244582
0.00248649
0.00251578
0.00254039
0.00256352
0.00258606
0.00260632
0.00261781
0.00260947
0.00256449
0.00247616
0.00234121
0.00216737
0.00194098
0.00404807
0.00379283
0.00351476
0.00321433
0.00289842
0.00258157
0.00228833
0.00204928
0.00189018
0.00181428
0.0018038
0.00183575
0.00188943
0.00195034
0.00201095
0.00207161
0.00212642
0.0021736
0.00221453
0.00225564
0.00229546
0.00233612
0.00237625
0.00241017
0.0024278
0.00241445
0.00235298
0.00224078
0.0020764
0.00186622
0.00403888
0.00381145
0.00356063
0.00328456
0.00298663
0.00267665
0.00237347
0.00210383
0.00189525
0.00175979
0.00168712
0.00167029
0.00169345
0.00173915
0.00180135
0.00186086
0.00191175
0.00195503
0.0019951
0.00203283
0.00206865
0.00210527
0.00214293
0.002178
0.0022027
0.00220509
0.00216977
0.00208215
0.00194235
0.00176781
0.00390039
0.00371606
0.00350863
0.00327392
0.00301297
0.00273397
0.00245306
0.00219471
0.0019849
0.0018338
0.00173942
0.0017071
0.00172116
0.00176529
0.00183048
0.00188839
0.00193196
0.00196542
0.00199417
0.00201564
0.00203232
0.00204675
0.00206022
0.00207122
0.00207463